% Model:              heat_case4.mph
% Version:            COMSOL 6.0.0.354
% Date:               Mar 29 2023, 20:42
% Dimension:          2
% Nodes:              192
% Expressions:        501
% Description:        因变量 u
% Length unit:        m
% X                       Y                        u (K) @ t=0              u (K) @ t=0.2            u (K) @ t=0.4            u (K) @ t=0.6            u (K) @ t=0.8            u (K) @ t=1              u (K) @ t=1.2            u (K) @ t=1.4            u (K) @ t=1.6            u (K) @ t=1.8            u (K) @ t=2              u (K) @ t=2.2            u (K) @ t=2.4            u (K) @ t=2.6            u (K) @ t=2.8            u (K) @ t=3              u (K) @ t=3.2            u (K) @ t=3.4            u (K) @ t=3.6            u (K) @ t=3.8            u (K) @ t=4              u (K) @ t=4.2            u (K) @ t=4.4            u (K) @ t=4.6            u (K) @ t=4.8            u (K) @ t=5              u (K) @ t=5.2            u (K) @ t=5.4            u (K) @ t=5.6            u (K) @ t=5.8            u (K) @ t=6              u (K) @ t=6.2            u (K) @ t=6.4            u (K) @ t=6.6            u (K) @ t=6.8            u (K) @ t=7              u (K) @ t=7.2            u (K) @ t=7.4            u (K) @ t=7.6            u (K) @ t=7.8            u (K) @ t=8              u (K) @ t=8.2            u (K) @ t=8.4            u (K) @ t=8.6            u (K) @ t=8.8            u (K) @ t=9              u (K) @ t=9.2            u (K) @ t=9.4            u (K) @ t=9.6            u (K) @ t=9.8            u (K) @ t=10             u (K) @ t=10.2           u (K) @ t=10.4           u (K) @ t=10.6           u (K) @ t=10.8           u (K) @ t=11             u (K) @ t=11.2           u (K) @ t=11.4           u (K) @ t=11.6           u (K) @ t=11.8           u (K) @ t=12             u (K) @ t=12.2           u (K) @ t=12.4           u (K) @ t=12.6           u (K) @ t=12.8           u (K) @ t=13             u (K) @ t=13.2           u (K) @ t=13.4           u (K) @ t=13.6           u (K) @ t=13.8           u (K) @ t=14             u (K) @ t=14.2           u (K) @ t=14.4           u (K) @ t=14.6           u (K) @ t=14.8           u (K) @ t=15             u (K) @ t=15.2           u (K) @ t=15.4           u (K) @ t=15.6           u (K) @ t=15.8           u (K) @ t=16             u (K) @ t=16.2           u (K) @ t=16.4           u (K) @ t=16.6           u (K) @ t=16.8           u (K) @ t=17             u (K) @ t=17.2           u (K) @ t=17.4           u (K) @ t=17.6           u (K) @ t=17.8           u (K) @ t=18             u (K) @ t=18.2           u (K) @ t=18.4           u (K) @ t=18.6           u (K) @ t=18.8           u (K) @ t=19             u (K) @ t=19.2           u (K) @ t=19.4           u (K) @ t=19.6           u (K) @ t=19.8           u (K) @ t=20             u (K) @ t=20.2           u (K) @ t=20.4           u (K) @ t=20.6           u (K) @ t=20.8           u (K) @ t=21             u (K) @ t=21.2           u (K) @ t=21.4           u (K) @ t=21.6           u (K) @ t=21.8           u (K) @ t=22             u (K) @ t=22.2           u (K) @ t=22.4           u (K) @ t=22.6           u (K) @ t=22.8           u (K) @ t=23             u (K) @ t=23.2           u (K) @ t=23.4           u (K) @ t=23.6           u (K) @ t=23.8           u (K) @ t=24             u (K) @ t=24.2           u (K) @ t=24.4           u (K) @ t=24.6           u (K) @ t=24.8           u (K) @ t=25             u (K) @ t=25.2           u (K) @ t=25.4           u (K) @ t=25.6           u (K) @ t=25.8           u (K) @ t=26             u (K) @ t=26.2           u (K) @ t=26.4           u (K) @ t=26.6           u (K) @ t=26.8           u (K) @ t=27             u (K) @ t=27.2           u (K) @ t=27.4           u (K) @ t=27.6           u (K) @ t=27.8           u (K) @ t=28             u (K) @ t=28.2           u (K) @ t=28.4           u (K) @ t=28.6           u (K) @ t=28.8           u (K) @ t=29             u (K) @ t=29.2           u (K) @ t=29.4           u (K) @ t=29.6           u (K) @ t=29.8           u (K) @ t=30             u (K) @ t=30.2           u (K) @ t=30.4           u (K) @ t=30.6           u (K) @ t=30.8           u (K) @ t=31             u (K) @ t=31.2           u (K) @ t=31.4           u (K) @ t=31.6           u (K) @ t=31.8           u (K) @ t=32             u (K) @ t=32.2           u (K) @ t=32.4           u (K) @ t=32.6           u (K) @ t=32.8           u (K) @ t=33             u (K) @ t=33.2           u (K) @ t=33.4           u (K) @ t=33.6           u (K) @ t=33.8           u (K) @ t=34             u (K) @ t=34.2           u (K) @ t=34.4           u (K) @ t=34.6           u (K) @ t=34.8           u (K) @ t=35             u (K) @ t=35.2           u (K) @ t=35.4           u (K) @ t=35.6           u (K) @ t=35.8           u (K) @ t=36             u (K) @ t=36.2           u (K) @ t=36.4           u (K) @ t=36.6           u (K) @ t=36.8           u (K) @ t=37             u (K) @ t=37.2           u (K) @ t=37.4           u (K) @ t=37.6           u (K) @ t=37.8           u (K) @ t=38             u (K) @ t=38.2           u (K) @ t=38.4           u (K) @ t=38.6           u (K) @ t=38.8           u (K) @ t=39             u (K) @ t=39.2           u (K) @ t=39.4           u (K) @ t=39.6           u (K) @ t=39.8           u (K) @ t=40             u (K) @ t=40.2           u (K) @ t=40.4           u (K) @ t=40.6           u (K) @ t=40.8           u (K) @ t=41             u (K) @ t=41.2           u (K) @ t=41.4           u (K) @ t=41.6           u (K) @ t=41.8           u (K) @ t=42             u (K) @ t=42.2           u (K) @ t=42.4           u (K) @ t=42.6           u (K) @ t=42.8           u (K) @ t=43             u (K) @ t=43.2           u (K) @ t=43.4           u (K) @ t=43.6           u (K) @ t=43.8           u (K) @ t=44             u (K) @ t=44.2           u (K) @ t=44.4           u (K) @ t=44.6           u (K) @ t=44.8           u (K) @ t=45             u (K) @ t=45.2           u (K) @ t=45.4           u (K) @ t=45.6           u (K) @ t=45.8           u (K) @ t=46             u (K) @ t=46.2           u (K) @ t=46.4           u (K) @ t=46.6           u (K) @ t=46.8           u (K) @ t=47             u (K) @ t=47.2           u (K) @ t=47.4           u (K) @ t=47.6           u (K) @ t=47.8           u (K) @ t=48             u (K) @ t=48.2           u (K) @ t=48.4           u (K) @ t=48.6           u (K) @ t=48.8           u (K) @ t=49             u (K) @ t=49.2           u (K) @ t=49.4           u (K) @ t=49.6           u (K) @ t=49.8           u (K) @ t=50             u (K) @ t=50.2           u (K) @ t=50.4           u (K) @ t=50.6           u (K) @ t=50.8           u (K) @ t=51             u (K) @ t=51.2           u (K) @ t=51.4           u (K) @ t=51.6           u (K) @ t=51.8           u (K) @ t=52             u (K) @ t=52.2           u (K) @ t=52.4           u (K) @ t=52.6           u (K) @ t=52.8           u (K) @ t=53             u (K) @ t=53.2           u (K) @ t=53.4           u (K) @ t=53.6           u (K) @ t=53.8           u (K) @ t=54             u (K) @ t=54.2           u (K) @ t=54.4           u (K) @ t=54.6           u (K) @ t=54.8           u (K) @ t=55             u (K) @ t=55.2           u (K) @ t=55.4           u (K) @ t=55.6           u (K) @ t=55.8           u (K) @ t=56             u (K) @ t=56.2           u (K) @ t=56.4           u (K) @ t=56.6           u (K) @ t=56.8           u (K) @ t=57             u (K) @ t=57.2           u (K) @ t=57.4           u (K) @ t=57.6           u (K) @ t=57.8           u (K) @ t=58             u (K) @ t=58.2           u (K) @ t=58.4           u (K) @ t=58.6           u (K) @ t=58.8           u (K) @ t=59             u (K) @ t=59.2           u (K) @ t=59.4           u (K) @ t=59.6           u (K) @ t=59.8           u (K) @ t=60             u (K) @ t=60.2           u (K) @ t=60.4           u (K) @ t=60.6           u (K) @ t=60.8           u (K) @ t=61             u (K) @ t=61.2           u (K) @ t=61.4           u (K) @ t=61.6           u (K) @ t=61.8           u (K) @ t=62             u (K) @ t=62.2           u (K) @ t=62.4           u (K) @ t=62.6           u (K) @ t=62.8           u (K) @ t=63             u (K) @ t=63.2           u (K) @ t=63.4           u (K) @ t=63.6           u (K) @ t=63.8           u (K) @ t=64             u (K) @ t=64.2           u (K) @ t=64.4           u (K) @ t=64.6           u (K) @ t=64.8           u (K) @ t=65             u (K) @ t=65.2           u (K) @ t=65.4           u (K) @ t=65.6           u (K) @ t=65.8           u (K) @ t=66             u (K) @ t=66.2           u (K) @ t=66.4           u (K) @ t=66.6           u (K) @ t=66.8           u (K) @ t=67             u (K) @ t=67.2           u (K) @ t=67.4           u (K) @ t=67.6           u (K) @ t=67.8           u (K) @ t=68             u (K) @ t=68.2           u (K) @ t=68.4           u (K) @ t=68.6           u (K) @ t=68.8           u (K) @ t=69             u (K) @ t=69.2           u (K) @ t=69.4           u (K) @ t=69.6           u (K) @ t=69.8           u (K) @ t=70             u (K) @ t=70.2           u (K) @ t=70.4           u (K) @ t=70.6           u (K) @ t=70.8           u (K) @ t=71             u (K) @ t=71.2           u (K) @ t=71.4           u (K) @ t=71.6           u (K) @ t=71.8           u (K) @ t=72             u (K) @ t=72.2           u (K) @ t=72.4           u (K) @ t=72.6           u (K) @ t=72.8           u (K) @ t=73             u (K) @ t=73.2           u (K) @ t=73.4           u (K) @ t=73.6           u (K) @ t=73.8           u (K) @ t=74             u (K) @ t=74.2           u (K) @ t=74.4           u (K) @ t=74.6           u (K) @ t=74.8           u (K) @ t=75             u (K) @ t=75.2           u (K) @ t=75.4           u (K) @ t=75.6           u (K) @ t=75.8           u (K) @ t=76             u (K) @ t=76.2           u (K) @ t=76.4           u (K) @ t=76.6           u (K) @ t=76.8           u (K) @ t=77             u (K) @ t=77.2           u (K) @ t=77.4           u (K) @ t=77.6           u (K) @ t=77.8           u (K) @ t=78             u (K) @ t=78.2           u (K) @ t=78.4           u (K) @ t=78.6           u (K) @ t=78.8           u (K) @ t=79             u (K) @ t=79.2           u (K) @ t=79.4           u (K) @ t=79.6           u (K) @ t=79.8           u (K) @ t=80             u (K) @ t=80.2           u (K) @ t=80.4           u (K) @ t=80.6           u (K) @ t=80.8           u (K) @ t=81             u (K) @ t=81.2           u (K) @ t=81.4           u (K) @ t=81.6           u (K) @ t=81.8           u (K) @ t=82             u (K) @ t=82.2           u (K) @ t=82.4           u (K) @ t=82.6           u (K) @ t=82.8           u (K) @ t=83             u (K) @ t=83.2           u (K) @ t=83.4           u (K) @ t=83.6           u (K) @ t=83.8           u (K) @ t=84             u (K) @ t=84.2           u (K) @ t=84.4           u (K) @ t=84.6           u (K) @ t=84.8           u (K) @ t=85             u (K) @ t=85.2           u (K) @ t=85.4           u (K) @ t=85.6           u (K) @ t=85.8           u (K) @ t=86             u (K) @ t=86.2           u (K) @ t=86.4           u (K) @ t=86.6           u (K) @ t=86.8           u (K) @ t=87             u (K) @ t=87.2           u (K) @ t=87.4           u (K) @ t=87.6           u (K) @ t=87.8           u (K) @ t=88             u (K) @ t=88.2           u (K) @ t=88.4           u (K) @ t=88.6           u (K) @ t=88.8           u (K) @ t=89             u (K) @ t=89.2           u (K) @ t=89.4           u (K) @ t=89.6           u (K) @ t=89.8           u (K) @ t=90             u (K) @ t=90.2           u (K) @ t=90.4           u (K) @ t=90.6           u (K) @ t=90.8           u (K) @ t=91             u (K) @ t=91.2           u (K) @ t=91.4           u (K) @ t=91.6           u (K) @ t=91.8           u (K) @ t=92             u (K) @ t=92.2           u (K) @ t=92.4           u (K) @ t=92.6           u (K) @ t=92.8           u (K) @ t=93             u (K) @ t=93.2           u (K) @ t=93.4           u (K) @ t=93.6           u (K) @ t=93.8           u (K) @ t=94             u (K) @ t=94.2           u (K) @ t=94.4           u (K) @ t=94.6           u (K) @ t=94.8           u (K) @ t=95             u (K) @ t=95.2           u (K) @ t=95.4           u (K) @ t=95.6           u (K) @ t=95.8           u (K) @ t=96             u (K) @ t=96.2           u (K) @ t=96.4           u (K) @ t=96.6           u (K) @ t=96.8           u (K) @ t=97             u (K) @ t=97.2           u (K) @ t=97.4           u (K) @ t=97.6           u (K) @ t=97.8           u (K) @ t=98             u (K) @ t=98.2           u (K) @ t=98.4           u (K) @ t=98.6           u (K) @ t=98.8           u (K) @ t=99             u (K) @ t=99.2           u (K) @ t=99.4           u (K) @ t=99.6           u (K) @ t=99.8           u (K) @ t=100
0.03125                   0.041666666666666664     0.14648254823055035      0.1440772725789644       0.15022274354823736      0.17529851171798613      0.24135105996430226      0.3658460075081723       0.5334382048489676       0.7050736924360056       0.8464427175285514       0.9463216641964035       1.0093508308546135       1.0448459485883785       1.0606804022374368       1.0622857192829929       1.0528312622848195       1.0341427800059952       1.0072119823151746       0.972545233357959        0.9305063933179376       0.881440252398835        0.8257889094970403       0.7642318897623153       0.6976263916515785       0.6274902123526751       0.5548706187044261       0.4819351711472478       0.4107979734945989       0.34431982792449173      0.28452277175336965      0.2327190207429989       0.18921528709263688      0.15403146692221273      0.1262133898637374       0.10445790118078226      0.08749798605462175      0.07421598227448677      0.06372629782558516      0.05541219549222503      0.04884585450300859      0.04369678203465335      0.03971423598389274      0.036680078407532436     0.03443014742255397      0.032909705159154125     0.03212986978613101      0.032217825993676265     0.03359476292316009      0.03826148788613212      0.05886354277261088      0.1340031270804773       0.2988499152998553       0.5189863923646552       0.7202423773535489       0.8617780403191058       0.9426959083399942       0.974769343938617        0.9736512267684412       0.9522830964986306       0.9182309836107984       0.8742308493906749       0.8232313587310679       0.7654977598820352       0.7005494042895221       0.631350592741533        0.5592725341482873       0.4866007475182855       0.41601310779627493      0.34895922403213175      0.2880333990901868       0.23527775180791544      0.19141274617004395      0.15597837264740802      0.12788074492969662      0.10587192660976048      0.08869072668904297      0.07525529689305734      0.06470576924931579      0.05637681088806304      0.0497903507822995       0.04457607558482652      0.04047675636722845      0.03734376994123336      0.03510260866399452      0.033629409061159715     0.03291911456188253      0.03313267737708629      0.03479121487178717      0.04062877438561862      0.06626815933248721      0.15175749777937295      0.32209638459811285      0.5451126777456227       0.7455105842220912       0.8802567928119085       0.9507620173280055       0.9767508952696357       0.9747177021163947       0.9530498846477484       0.9182352207667644       0.8730447182574168       0.8202393565740959       0.7608880899723602       0.6960821201838907       0.6272381210942928       0.5558726653581979       0.4840385214837934       0.4137987346098093       0.34696238908984023      0.28611791353761057      0.23349511303528417      0.18981786894680214      0.15456155619286316      0.12646253082805933      0.10440137543796088      0.0871357103548348       0.07368477071335665      0.06327186305569024      0.055169474779865134     0.048835487162263755     0.04383122419022842      0.03992543194804262      0.03689608923355294      0.03464669790058527      0.0331220662361442       0.032352096020593094     0.0324665534615801       0.033900197811180435     0.03889273829628358      0.06155605897779393      0.1390748473935281       0.30537651880894984      0.5298981577449943       0.7339150975296619       0.8696014109783711       0.9419738384699073       0.9697975523799873       0.969224038810868        0.9499464213957963       0.916908444451436        0.8725682139861501       0.81916517773633         0.7588455687269346       0.6937266008685005       0.6247936539591961       0.5540154215274177       0.48351854968790187      0.4149401981837705       0.3498608504889565       0.2911816184029714       0.2398015639161406       0.19632204992325247      0.1607302211894819       0.1322594392072731       0.1097161502584837       0.09195914790110918      0.0780057357083389       0.06704900813201024      0.05845167561733999      0.05167997392082027      0.04636358437608939      0.04222253514411503      0.0390650517806492       0.036765691974519274     0.03526762809314546      0.03461641653681298      0.03500884569845647      0.03714104719045657      0.044824217045595756     0.0782083330094681       0.18028681335146404      0.36807706018278796      0.5967671714606557       0.7852632342108417       0.9048978258214182       0.968766705884441        0.9929847960392932       0.9883695299291183       0.964741107212792        0.9278606969399196       0.8802378679200382       0.8247637737225288       0.7633318427628613       0.6970460678490469       0.6274860393019016       0.555888026080166        0.4835376814820127       0.4125005624935555       0.3454081413627635       0.2848391527637798       0.23249284666734152      0.18896091402567436      0.15394843738900912      0.12631054186348223      0.10458787037604789      0.08753273492148224      0.07417285824833267      0.06369648375892335      0.05544929195131982      0.0489515818207199       0.04383479494515188      0.03983494798944364      0.036766991091741766     0.03450779805694162      0.03297830498789794      0.032186693872985825     0.03225586668595419      0.033597503940010716     0.03814502326585183      0.05794999452847317      0.13115767285690544      0.2951786217195738       0.517328264355771        0.7248449780639018       0.866763221235272        0.9417858517660384       0.9715501392887911       0.971186802026986        0.9507739926847433       0.9170521922092323       0.8729631011424118       0.8203342909282583       0.760327056854819        0.6943945423342226       0.6247185681334794       0.5528140630719494       0.4799763722585045       0.40844542203315815      0.3423452844453443       0.28245701789923916      0.23046368537794418      0.18722431254908414      0.15233464237983724      0.12479884642467023      0.10327791672543514      0.0865177653938243       0.07338780356152115      0.06300757784353209      0.054767679129185766     0.04825159509473204      0.043142276944824594     0.03918978623725536      0.036183175978945124     0.0339569980042464       0.0324375484233654       0.03163388826819113      0.03166385480228939      0.03290271024267458      0.037057729621886776     0.0551062037550802       0.12414792989277892      0.2827898552331008       0.5063490695827885       0.7108712689872964       0.8534922988962231       0.9356664757757323       0.9710927188192306       0.9759364565747471       0.9592538063514039       0.9267808250575857       0.8815078929940761       0.8274213633651835       0.7668268750920995       0.7013946028003876       0.6320983306715157       0.5604239912604059       0.4876881245081118       0.4161286186342773       0.34836890445724555      0.28718464794026016      0.23433768336167574      0.19033194301390652      0.15485377174358667      0.12681013691884513      0.10494445089794076      0.08792864180148237      0.07463933340825452      0.06420130839839837      0.05593865461144222      0.049393517971053666     0.0442394947721416       0.04025088103104018      0.03718544887087598      0.03492877418757766      0.03342561430848954      0.03268720205081352      0.03285104794605012      0.03439255649419334      0.039729664458982655     0.0640131690927436       0.14782122740826398      0.31828123988227797      0.5377389826702935       0.733740822900997        0.867405119022857        0.94103492794834         0.9692335520470906       0.966002629965764        0.942037035019508        0.907115434101351        0.8604825235571487       0.8078145978161191       0.7504725677424549       0.6882554149904251       0.6219285919745345       0.5516547053824207       0.4798395470447729       0.4092699175644588       0.342650991704023        0.282521632525502        0.23056754598725462      0.18738074690103926      0.15261316649808204      0.12516696580837133      0.10367970555231694      0.08690280975205578      0.07382471049011052      0.06356426656248082      0.055511806346084734     0.04913335876581189      0.04408564354032558      0.04012090073380962      0.03705567411198896      0.03477729990887394      0.03325311915079896      0.032488952360969416     0.03261407494056132      0.034088766680129376     0.039162762768746404     0.061429123302111206     0.14040026474454792      0.3109341128847381       0.5348351074090337       0.7374973306225082       0.8751583209817809       0.9477374983085739       0.9749107071983235       0.9732402363075867       0.9518817171742411       0.9175874835620726       0.8730964264505019       0.820463505677559        0.7610775044461032       0.6962685129985513       0.6272844010084154       0.5557202297177786       0.48353299751568973      0.41297640601146435      0.3462576308547943       0.28563543352499354      0.23317551200026276      0.18963932175565199      0.15456704243559677      0.12680737085756777      0.10504371991519759      0.0880433039381518       0.07473873176429471      0.0642866655775393       0.056026163379663096     0.049490056524105375     0.04431093636248417      0.04023608731411525      0.037125225411112996     0.034898974259931693     0.0334282956167512       0.032714594882546556     0.03291255377972544      0.034526595836684666     0.04007526189718588      0.06463061841774632      0.14847723748386948      0.32340031863051044      0.5487814226525918       0.7451184350157677       0.8779615373198594       0.9514822621687149       0.9802587511260109       0.9775262114563357       0.9539728761341373       0.918546837158625        0.8743543735931346       0.8232775830243115       0.7659651594092504       0.7015710888216142       0.6324789346064235       0.5601571890936693       0.4871157531767844       0.41670950265974616      0.34968253753489653      0.2883915906570692       0.2353483590491419       0.19133039416984277      0.15586927238428172      0.12781741680787523      0.10583221036715997      0.08866343774416471      0.0752379329697739       0.06469896556675168      0.05638518688294776      0.049808483468428325     0.044618386085269794     0.040536153438220916     0.037400289222515565     0.03513247850433448      0.03365672651359678      0.03295044543839389      0.03317198408979443      0.034850565105848504     0.040685362466397        0.06649232346094963      0.15466344977858457      0.33333637458328813      0.5590855299028392       0.7542679946106162       0.8845464752611242       0.9558755824705585       0.9838428537809997       0.9818534254887566       0.9592281827625025       0.921864764115496        0.8742288470913955       0.8205333207668319       0.7606365355520058       0.6968202289213822       0.6290763643811395       0.5588482814052347       0.48727629565435404      0.4181537044355139       0.35388054754402265      0.29457948414773605      0.2422063599830757       0.1979496186037019       0.16181031567103         0.13294298766803347      0.11015687733207181      0.09226777984735618      0.07823773905807674      0.0672121782551456       0.05852953912747257      0.05167990831702756      0.046289453471590254     0.04209294898911003      0.03889357427419428      0.036585365502705074     0.03510823607512709      0.03447032327327534      0.03487129695904266      0.03701485537064074      0.0448284047165111       0.07853897830811812      0.18168468113599084      0.3695215844493454       0.5977175931058761       0.7858277159904541       0.9056086796422462       0.9688331455675656       0.9926180861120119       0.9880455254166486       0.9650933035503095       0.9282583966974406       0.8806474085302559       0.8251596655617648       0.7636646642385148       0.6973314583823345       0.6277358381491407       0.5561772325643717       0.4839856796390752       0.4131379726918494       0.34604859404026245      0.28542103323934853      0.2329920208726782       0.18939442079056837      0.15433014779575677      0.12664182198320473      0.10483526937866554      0.08769107341919945      0.07428681802691657      0.06378539049266153      0.05550482104663306      0.04897947897671304      0.043846358887362755     0.03983813196281876      0.03677396143304097      0.034524749192875466     0.03299730089008775      0.03220426359244278      0.03227606555433918      0.033626387102461665     0.03819653367598042      0.05810633264923769      0.1315930683205847       0.2957863964764781       0.5176471102426886       0.7232156974816839       0.8650355874782365       0.941380039930754        0.9698334198231986       0.9683852758481851       0.9488848121687069       0.9160795735541628       0.8729572509181216       0.8211010888062784