% Model:              ns2d_C.mph
% Version:            COMSOL 6.0.0.354
% Date:               Aug 11 2023, 23:13
% Dimension:          2
% Nodes:              10201
% Expressions:        3
% Description:        速度场x 分量, 速度场y 分量, 压力
% Length unit:        null
% x                       y                        u @ Re=100               v @ Re=100               p @ Re=100
0                         0                        0                        0                        0
0                         0.004006647973465352     0                        0                        -5.037573888403284E-6
0                         0.008147082111446234     0                        0                        -1.601296304064853E-5
0                         0.012425769673840273     0                        0                        -2.3486122014380734E-5
0                         0.016847327087023307     0                        0                        -2.0764473574217225E-5
0                         0.02141652492467401      0                        0                        -4.806993777865828E-6
0                         0.026138293054913518     0                        0                        2.6031667387788336E-5
0                         0.03101772595931337      0                        0                        7.262677269182705E-5
0                         0.03606008822951071      0                        0                        1.3538406441699109E-4
0                         0.04127082024736123      0                        0                        2.143969634219411E-4
0                         0.046655544054758365     0                        0                        3.0953064235526796E-4
0                         0.05222006941945181      0                        0                        4.2046773109662817E-4
0                         0.05797040010341013      0                        0                        5.467318085887702E-4
0                         0.06391274034049056      0                        0                        6.876971097584824E-4
0                         0.07005350153040497      0                        0                        8.425889609768889E-4
0                         0.07639930915620428      0                        0                        0.0010104774160693887
0                         0.08295700993274494      0                        0                        0.0011902655453558003
0                         0.08973367919385028      0                        0                        0.0013806729194688842
0                         0.0967366285261368       0                        0                        0.0015802147027156354
0                         0.10397341365774188      0                        0                        0.0017871765750327295
0                         0.11145184261046429      0                        0                        0.001999585230259644
0                         0.11917998412411362      0                        0                        0.0022151743648042414
0                         0.12716617636215694      0                        0                        0.0024313459859433223
0                         0.13541903590805648      0                        0                        0.00264512681572218
0                         0.14394746706200423      0                        0                        0.0028531196171451456
0                         0.15276067144808472      0                        0                        0.003051449328076879
0                         0.16186815794223003      0                        0                        0.0032357039855292675
0                         0.17127975293168068      0                        0                        0.0034008706007313282
0                         0.18100561091701992      0                        0                        0.0035412663083143367
0                         0.19105622546822132      0                        0                        0.0036504655365030138
0                         0.2014424405465303       0                        0                        0.0037212240353285196
0                         0.21217546220439468      0                        0                        0.003745401763448078
0                         0.22326687067606885      0                        0                        0.003713885817795878
0                         0.2347286328719353       0                        0                        0.0036165184637807772
0                         0.24657311529002482      0                        0                        0.0034420298622971626
0                         0.25881309735866564      0                        0                        0.0031779893224365887
0                         0.2714617852246581       0                        0                        0.0028107642018200115
0                         0.2845328260018502       0                        0                        0.002325527974198256
0                         0.2980403224954885       0                        0                        0.0017062634307805804
0                         0.3119988484182304       0                        0                        9.358911207593143E-4
0                         0.3264234641142345       0                        0                        -3.6805031850939683E-6
0                         0.3413297328082957       0                        0                        -0.0011311799479575327
0                         0.356733737397555        0                        0                        -0.002465940432637784
0                         0.3726520978039025       0                        0                        -0.004027014155399095
0                         0.38910198890579534      0                        0                        -0.0058334190002370485
0                         0.4061011590688373       0                        0                        -0.007902181777808534
0                         0.4236679492951146       0                        0                        -0.01024958868345486
0                         0.44182131301194744      0                        0                        -0.01288702025972084
0                         0.4605808365214086       0                        0                        -0.015824820606872812
0                         0.4799667601326732       0                        0                        -0.01906397111134047
0                         0.5000000000000001       0                        0                        -0.022605710284986254
0                         0.5200332398673271       0                        0                        -0.026312889412808817
0                         0.5394191634785914       0                        0                        -0.030017589229199802
0                         0.5581786869880525       0                        0                        -0.033686810179403726
0                         0.5763320507048854       0                        0                        -0.0372834741034067
0                         0.5938988409311627       0                        0                        -0.040783456243645134
0                         0.6108980110942047       0                        0                        -0.044163869245842535
0                         0.6273479021960976       0                        0                        -0.0474104412040238
0                         0.6432662626024449       0                        0                        -0.05051196335617574
0                         0.6586702671917043       0                        0                        -0.053462962547602445
0                         0.6735765358857654       0                        0                        -0.05626115689042519
0                         0.6880011515817694       0                        0                        -0.05890816712615331
0                         0.7019596775045113       0                        0                        -0.06140834786674474
0                         0.7154671739981499       0                        0                        -0.06376885524879367
0                         0.7285382147753419       0                        0                        -0.065999134997997
0                         0.7411869026413342       0                        0                        -0.06811088678118958
0                         0.7534268847099752       0                        0                        -0.07011790112447006
0                         0.7652713671280647       0                        0                        -0.07203609150968004
0                         0.7767331293239311       0                        0                        -0.07388352505790154
0                         0.7878245377956054       0                        0                        -0.07568053245584054
0                         0.7985575594534697       0                        0                        -0.07744982795402151
0                         0.8089437745317787       0                        0                        -0.0792166486711
0                         0.8189943890829801       0                        0                        -0.08100888488353918
0                         0.8287202470683194       0                        0                        -0.08285719655732462
0                         0.83813184205777         0                        0                        -0.08479510652023699
0                         0.8472393285519152       0                        0                        -0.08685907128658946
0                         0.8560525329379954       0                        0                        -0.08908853502808817
0                         0.8645809640919436       0                        0                        -0.09152598036341573
0                         0.8728338236378432       0                        0                        -0.09421699668281645
0                         0.8808200158758865       0                        0                        -0.09721039469053813
0                         0.8885481573895359       0                        0                        -0.10055840400189701
0                         0.8960265863422582       0                        0                        -0.1043169998870608
0                         0.9032633714738633       0                        0                        -0.10854641645444355
0                         0.9102663208061497       0                        0                        -0.11331191852141403
0                         0.9170429900672549       0                        0                        -0.11868492597954922
0                         0.9236006908437957       0                        0                        -0.1247446173900203
0                         0.9299464984695951       0                        0                        -0.13158019174162977
0                         0.9360872596595095       0                        0                        -0.13929405253223062
0                         0.94202959989659         0                        0                        -0.1480063206631818
0                         0.9477799305805481       0                        0                        -0.15786132849753165
0                         0.9533444559452415       0                        0                        -0.16903718149250407
0                         0.9587291797526388       0                        0                        -0.18176029067104804
0                         0.9639399117704894       0                        0                        -0.19632832422380495
0                         0.9689822740406866       0                        0                        -0.2131483898143444
0                         0.9738617069450866       0                        0                        -0.23280430817550163
0                         0.9785834750753261       0                        0                        -0.2561836699249869
0                         0.9831526729129767       0                        0                        -0.2847623370330954
0                         0.9875742303261598       0                        0                        -0.3211775652082305
0                         0.9918529178885537       0                        0                        -0.3705111635071206
0                         0.9959933520265346       0                        0                        -0.46569792870053905
0                         1                        0                        0                        -0.5497805320700635
0.004006647973465352      0.9918529178885536       0.0016310516528221855    0.026359735237841398     -0.36068397123559065
0.004006647973465352      0.9959933520265345       0.004786172624941186     0.0187328001419414       -0.42218679748318216
0.004006647973465352      1                        0.023728901786149587     1.967880032140413E-4     -0.4647300083902608
0.004006647973465353      0.9738617069450867       -2.607172414240629E-4    0.029783108898799433     -0.23293792831538557
0.004006647973465353      0.9785834750753261       -1.164586673324761E-4    0.030072031203886386     -0.25563975153334473
0.004006647973465353      0.9831526729129767       1.3383754869370057E-4    0.029900472281746526     -0.282955359291707
0.004006647973465353      0.9875742303261598       6.162213012208413E-4     0.028917764571169444     -0.31691576920583225
0.004006647973465354      0.9533444559452415       -4.349859024788554E-4    0.026584400754700182     -0.16999219445656946
0.004006647973465354      0.9587291797526388       -4.2398736598500713E-4   0.027553656118015857     -0.18264907988372045
0.004006647973465354      0.9639399117704894       -3.9692183495473367E-4   0.028442244086298116     -0.19708649322008145
0.004006647973465355      0.9299464984695951       -3.9104233362765255E-4   0.022436675436158123     -0.13248423554752395
0.004006647973465355      0.9360872596595095       -4.1060679632101774E-4   0.023475145256970028     -0.14023912762584465
0.004006647973465355      0.94202959989659         -4.256404675950176E-4    0.02452348147779548      -0.14897819020123726
0.004006647973465355      0.9477799305805481       -4.3450287291616125E-4   0.025566265612023076     -0.1588395182080902
0.004006647973465355      0.9689822740406866       -3.465761271006498E-4    0.02920653275089499      -0.21367621141611912
0.0040066479734653555     0.9102663208061497       -3.165705410401239E-4    0.019496305226635775     -0.11404654365379029
0.0040066479734653555     0.9170429900672548       -3.4311461565770434E-4   0.02043771709504242      -0.11948085997970372
0.0040066479734653555     0.9236006908437957       -3.682105864007959E-4    0.021420716538755012     -0.12559785263037773
0.004006647973465356      0.8885481573895359       -2.34492079208949E-4     0.016985220556580246     -0.10110238592471288
0.004006647973465356      0.8960265863422581       -2.6173563639545275E-4   0.01776505648814565      -0.10492427971788207
0.004006647973465356      0.9032633714738632       -2.892549215114871E-4    0.018603535934315924     -0.10921765004724443
0.004006647973465357      0.8728338236378433       -1.8238200052080917E-4   0.015612913497095995     -0.09464009272120834
0.004006647973465357      0.8808200158758865       -2.0792836157649403E-4   0.016267172066633837     -0.09769271770107765
0.004006647973465358      0.8472393285519152       -1.1433694152753765E-4   0.014037118144716398     -0.08712472309098987
0.004006647973465358      0.8560525329379954       -1.3539222731436844E-4   0.014498448262808003     -0.08940286441425875
0.004006647973465358      0.8645809640919436       -1.581298104402988E-4    0.015023368862437556     -0.09189291411534786
0.004006647973465359      0.8287202470683193       -7.770189652401261E-5    0.01329685143589782      -0.08303819903176848
0.004006647973465359      0.83813184205777         -9.50824472433813E-5     0.013637479137701454     -0.08501626420113434
0.00400664797346536       0.8089437745317787       -4.865528123374078E-5    0.012778559926099328     -0.07933053873339961
0.00400664797346536       0.8189943890829801       -6.222746561484192E-5    0.013011866149510035     -0.08115413615021962
0.004006647973465361      0.7878245377956054       -2.7054745600275272E-5   0.012448721502195335     -0.07574449056901478
0.004006647973465361      0.7985575594534698       -3.6950841635906134E-5   0.012592469358136309     -0.07753666562194052
0.004006647973465362      0.7652713671280647       -1.2360285145940407E-5   0.012267201174527785     -0.07206606559392516
0.004006647973465362      0.7767331293239311       -1.88885311403076E-5     0.012342116732562554     -0.0739285981169834
0.0040066479734653625     0.7411869026413342       -3.813417740053872E-6    0.012189692861278927     -0.0681211019520746
0.0040066479734653625     0.7534268847099752       -7.369893494883861E-6    0.012218325856853313     -0.07013633472574986
0.004006647973465363      0.7285382147753419       -1.5869007282005305E-6   0.012175386216190172     -0.06600421545239482
0.004006647973465364      0.7019596775045113       -7.208257746690971E-7    0.012165616261844809     -0.06141148434725479
0.004006647973465364      0.7154671739981499       -5.88538890840914E-7     0.01216939408098484      -0.06377165179181112
0.004006647973465365      0.6880011515817694       -1.88970637060884E-6     0.01215787782649891      -0.05891405194731763
0.004006647973465366      0.6586702671917042       -6.980327751286224E-6    0.012105458305731441     -0.05348072912975316
0.004006647973465366      0.6735765358857653       -4.0060012281707035E-6   0.012139924588318713     -0.05627198555657573
0.004006647973465367      0.6432662626024449       -1.072679912530288E-5    0.012048128569544741     -0.05053844775966122
0.004006647973465368      0.6273479021960976       -1.5150503693707105E-5   0.011961638738501038     -0.04744722029472919
0.0040066479734653685     0.5938988409311627       -2.5641631573308514E-5   0.011676395575048012     -0.040844600992871356
0.0040066479734653685     0.6108980110942047       -2.0160644713072046E-5   0.011839721615885842     -0.04421227636895
0.004006647973465369      0.5763320507048852       -3.149244085225657E-5    0.011465861707738619     -0.03735816061560176
0.00400664797346537       0.5581786869880525       -3.7557311055311404E-5   0.011203037364398217     -0.033775584179040294
0.004006647973465371      0.5394191634785914       -4.373338481480527E-5    0.010883235960926524     -0.030120606635856813
0.004006647973465372      0.5200332398673271       -4.979001336813419E-5    0.010503144710105695     -0.026429995038029508
0.004006647973465373      0.5000000000000001       -5.5696360138157526E-5   0.010060100318457405     -0.022736393314244537
0.004006647973465374      0.47996676013267314      -6.0979584840462436E-5   0.00956957617294955      -0.019206875362500347
0.004006647973465375      0.4605808365214086       -6.536398644558889E-5    0.009055713206586874     -0.015977936723249878
0.004006647973465376      0.4236679492951146       -7.168277199058926E-5    0.007991905418977714     -0.010417356554914164
0.004006647973465376      0.44182131301194744      -6.894160880687381E-5    0.008527276481190529     -0.01304839972856413
0.004006647973465377      0.4061011590688373       -7.365525587639085E-5    0.007456584986822092     -0.0080745241733062
0.004006647973465378      0.3726520978039025       -7.547823143439824E-5    0.006408581798703807     -0.00420364580658654
0.004006647973465378      0.3891019889057953       -7.489602709656853E-5    0.006927142256021265     -0.0060086745379659065
0.004006647973465379      0.356733737397555        -7.54624076399868E-5     0.0059049018179107154    -0.0026425809887912675
0.00400664797346538       0.3264234641142345       -7.391744366581087E-5    0.004954242148510792     -1.7683908225657184E-4
0.00400664797346538       0.3413297328082957       -7.492071914163525E-5    0.005419316561663904     -0.001306609124972748
0.004006647973465381      0.31199884841823033      -7.251772138598838E-5    0.0045114493735202345    7.659201624477408E-4
0.0040066479734653816     0.2845328260018502       -6.875917410656881E-5    0.0036969414478760956    0.0021641398408436836
0.0040066479734653816     0.2980403224954885       -7.077999175865077E-5    0.004092116792498047     0.0015402571641495019
0.004006647973465382      0.2714617852246581       -6.650403429410351E-5    0.003326206931731142     0.0026545331338105214
0.004006647973465383      0.24657311529002482      -6.146096933766131E-5    0.0026575979989600486    0.003297339358520435
0.004006647973465383      0.25881309735866564      -6.405849054702359E-5    0.002979865233461115     0.0030273539470401724
0.004006647973465384      0.22326687067606885      -5.59399978003247E-5     0.0020830085446335313    0.0035818331795347104
0.004006647973465384      0.2347286328719353       -5.8745133882752494E-5   0.0023588763121107988    0.003478044616067665
0.004006647973465385      0.2014424405465303       -5.015777291237983E-5    0.0015965008233019943    0.00360240648517274
0.004006647973465385      0.21217546220439468      -5.3070480699696165E-5   0.0018291827089891362    0.003619917509907293
0.004006647973465386      0.18100561091701992      -4.427173643534069E-5    0.0011907140539397882    0.0034359192828496287
0.004006647973465386      0.19105622546822132      -4.7219819754948015E-5   0.0013840077014885739    0.003538371882988448
0.004006647973465387      0.16186815794223003      -3.839402865755899E-5    8.577048413964286E-4     0.0031438086840571977
0.004006647973465387      0.17127975293168068      -4.132623743750828E-5    0.0010156150563920053    0.003302264275700418
0.004006647973465388      0.13541903590805648      -2.976180187631659E-5    4.7724663675324254E-4    0.002573006363543362
0.004006647973465388      0.14394746706200423      -3.260449538639006E-5    5.894859656254293E-4     0.002774482179737572
0.004006647973465388      0.15276067144808472      -3.548418406514503E-5    7.159876257244082E-4     0.0029662157439725215
0.0040066479734653885     0.11917998412411362      -2.42118384162882E-5     2.918849661201834E-4     0.002155805526471165
0.0040066479734653885     0.12716617636215694      -2.6962300127789846E-5   3.7834453721992964E-4    0.0023656517882300375
0.004006647973465389      0.0967366285261368       -1.6313833653214045E-5   9.868278605239127E-5     0.0015391233930130326
0.004006647973465389      0.10397341365774188      -1.8881373089810403E-5   1.5287117921638843E-4    0.0017401185416101432
0.004006647973465389      0.11145184261046429      -2.151619899395877E-5    2.1700456722683833E-4    0.001946431497449381
0.00400664797346539       0.07639930915620428      -9.092783464348553E-6    -1.1822522797569375E-5   9.86395556429753E-4
0.00400664797346539       0.08295700993274494      -1.141058432619106E-5    1.707222674912351E-5     0.0011606762430808166
0.00400664797346539       0.08973367919385028      -1.3820812061013292E-5   5.366571969732038E-5     0.0013454086964773345
0.004006647973465391      0.05222006941945181      -1.0061256578047294E-6   -6.43201985793334E-5     4.162665704299384E-4
0.004006647973465391      0.05797040010341013      -2.817955940046116E-6    -5.929631612198465E-5    5.379474204060148E-4
0.004006647973465391      0.06391274034049056      -4.7818146221974895E-6   -4.932213551057934E-5    6.740457525063812E-4
0.004006647973465391      0.07005350153040497      -6.878729691885141E-6    -3.372395849127139E-5    8.238279114266756E-4
0.004006647973465392      0.03606008822951071      3.2665797122099188E-6    -5.647583373587917E-5    1.4260716399738522E-4
0.004006647973465392      0.04127082024736123      2.066157736396475E-6     -6.222083615677216E-5    2.1828040685670404E-4
0.004006647973465392      0.046655544054758365     6.309880855275372E-7     -6.506789415920094E-5    3.0957543637085593E-4
0.004006647973465393      0.012425769673840273     4.051637862750949E-6     -1.1014770990331694E-5   -1.2504120780210595E-5
0.004006647973465393      0.02141652492467401      5.019463659930728E-6     -2.9259246515604312E-5   8.061217086339898E-6
0.004006647973465393      0.026138293054913518     4.7961504822642985E-6    -3.921404901502096E-5    3.7922795880293175E-5
0.004006647973465393      0.03101772595931337      4.192586318507916E-6     -4.855449065804179E-5    8.25708186919058E-5
0.004006647973465394      0                        0                        0                        5.036817079155846E-6
0.004006647973465394      0.008147082111446234     2.744511133493847E-6     -4.581853264529645E-6    -8.214102476044948E-6
0.0040066479734653946     0.016847327087023307     4.794998412489304E-6     -1.9552432387646356E-5   -8.124869572304007E-6
0.004006647973465395      0.004006647973465352     9.94612843170797E-7      -9.946185814901137E-7    2.843748745067753E-10
0.008147082111446234      0.9918529178885537       0.009131843795710316     0.03699393829119844      -0.33487667223685685
0.008147082111446234      0.9959933520265344       0.020950997660746713     0.021498348946079503     -0.3629848388121099
0.008147082111446234      1                        0.04839159419062751      3.384413706646306E-5     -0.3736498375615673
0.008147082111446236      0.9785834750753261       4.786122966658949E-4     0.05263272040246988      -0.25188280331153257
0.008147082111446236      0.9831526729129767       0.0018116422281554251    0.05032669726379383      -0.27590588252921383
0.008147082111446236      0.9875742303261598       0.004227533323866281     0.04570726330247739      -0.3036889278317387
0.008147082111446238      0.9533444559452415       -0.0013639370242215113   0.050432613018272815     -0.17093412458820478
0.008147082111446238      0.9587291797526388       -0.0012664453904381579   0.05179066778401938      -0.18327171843198953
0.008147082111446238      0.9639399117704894       -0.0010880779546246395   0.052855986003059546     -0.19721353118402063
0.008147082111446238      0.9689822740406866       -7.90390761414555E-4     0.053497551729117875     -0.2130397090428954
0.00814708211144624       0.9360872596595095       -0.0013750042863765245   0.04542809109360373      -0.14154438596970695
0.00814708211144624       0.94202959989659         -0.0014046793824565706   0.04718946788970567      -0.15023175832193222
0.00814708211144624       0.9477799305805481       -0.001404686304355624    0.04887558354319845      -0.15997991302077003
0.00814708211144624       0.9738617069450864       -3.0805590589177864E-4   0.05352303964366693      -0.231109504622304
0.008147082111446241      0.9170429900672549       -0.001178520322022141    0.040078051022724874     -0.12071664123389961
0.008147082111446241      0.9236006908437957       -0.0012566338937924934   0.04184133996677505      -0.12688378953107315
0.008147082111446241      0.9299464984695951       -0.0013236629888367804   0.04363397494803935      -0.13379629488636535
0.008147082111446243      0.9032633714738633       -0.0010028851673238332   0.03672649990998484      -0.11030664650618252
0.008147082111446243      0.9102663208061497       -0.0010929592604900127   0.0383669052792331       -0.11521491572305298
0.008147082111446245      0.8808200158758865       -7.276360172125658E-4    0.03236402274207221      -0.09850987959871943
0.008147082111446245      0.8885481573895359       -8.184027627287306E-4    0.03371469323582237      -0.1020127125521281
0.008147082111446246      0.8560525329379954       -4.769481441474191E-4    0.029001559881832978     -0.08995103855019687
0.008147082111446246      0.8645809640919436       -5.559090711472544E-4    0.030004751582382146     -0.09252736395309462
0.008147082111446246      0.8728338236378431       -6.39767206916124E-4     0.031126096833534015     -0.09536469043938739
0.008147082111446246      0.8960265863422582       -9.107029900874534E-4    0.03517182727631395      -0.10592613366673925
0.008147082111446248      0.83813184205777         -3.362505931261295E-4    0.02734568586957665      -0.08540779666618459
0.008147082111446248      0.8472393285519153       -4.035647630515674E-4    0.028116009605532587     -0.08759163616343812
0.00814708211144625       0.8287202470683194       -2.7532566560941463E-4   0.026686460470002994     -0.08336085188074013
0.008147082111446251      0.7985575594534697       -1.3189299552541847E-4   0.02531252447589589      -0.07769480847648988
0.008147082111446251      0.8089437745317786       -1.731730957415151E-4    0.025677404244170136     -0.07953636233117059
0.008147082111446253      0.7878245377956054       -9.693833125079208E-5    0.025029030473981122     -0.07586204639331873
0.008147082111446253      0.8189943890829801       -2.2095610928157933E-4   0.0261326878581656       -0.0814148143361511
0.008147082111446255      0.7652713671280647       -4.495187212255744E-5    0.02466648318710305      -0.07212289861509309
0.008147082111446255      0.7767331293239312       -6.805885453236368E-5    0.0248171446728129       -0.07401247343605113
0.008147082111446257      0.7411869026413342       -1.4692325390463557E-5   0.024505008493006075     -0.06814242477156164
0.008147082111446257      0.7534268847099752       -2.728099072237275E-5    0.024566183850206525     -0.07017243766136069
0.008147082111446258      0.7285382147753419       -6.827723138874518E-6    0.024471417062748104     -0.06601632586841848
0.00814708211144626       0.7019596775045114       -3.869136125147798E-6    0.024439618856025046     -0.061420323271909306