% Model:              poisson2d_cg_simple.mph
% Version:            COMSOL 6.0.0.354
% Date:               May 26 2023, 18:27
% Dimension:          2
% Nodes:              1246
% Expressions:        1
% Description:        因变量 u
% Length unit:        m
% X                       Y                        u (1)
-0.4728706214840475       -0.44477852828979264     0.9163394496968521
-0.5                      -0.42592592592592593     1
-0.5                      -0.462962962962963       1
-0.4760667850287342       -0.47504032529815354     0.966619261625228
-0.5                      -0.5                     1
-0.4629629629629636       -0.5                     1
-0.47210956505403495      -0.4081853411510375      0.8581726026735784
-0.5                      -0.38888888888888884     1
-0.3985447553604595       -0.3641213958352899      0.2046278934087675
-0.3780845193373206       -0.36247245664978767     0
-0.38989024574933817      -0.34381488011079786     0
-0.3825542954455346       -0.38319278846926536     0.19811274034453372
-0.3624726466124591       -0.37808436735502704     0
-0.4259259259259265       -0.5                     1
-0.4445003406966596       -0.4674601352380122      0.8991005991075199
-0.4718859021761802       -0.37193507088628436     0.8065825862187378
-0.5                      -0.35185185185185186     1
-0.3973137357488975       -0.32302252884879823     0
-0.4117724359794698       -0.34388176472016063     0.2379862486284404
-0.36367155222415004      -0.3993401393669971      0.20931659037989894
-0.34381509471335553      -0.389890141146066       0
-0.4070239023975503       -0.4706067840873077      0.8486572884872606
-0.3888888888888894       -0.5                     1
-0.4660618402601181       -0.3359387376388526      0.7203688588944671
-0.5                      -0.3148148148148149      1
-0.4                      -0.3                     0
-0.418472436434356        -0.3071490025717247      0.2290471462034648
-0.3406896228760783       -0.4126407421655056      0.235485638451273
-0.3230217594024799       -0.3973139177816531      0
-0.37085529144878815      -0.47207404436742156     0.8065542007347554
-0.3518518518518523       -0.5                     1
-0.46548123036592404      -0.297256460216106       0.6955411334878592
-0.5                      -0.2777777777777778      1
-0.39731391784808434      -0.2769782408783278      0
-0.420459849515891        -0.2831116579928317      0.25715133269746565
-0.3                      -0.4                     0
-0.31264911091721265      -0.42034169128096266     0.25493808305129323
-0.3148148148148152       -0.5                     1
-0.3348526631279213       -0.4668493732491143      0.7260513122410456
-0.4661581199124645       -0.2594092809362345      0.7147625134206733
-0.5                      -0.24074074074074073     1
-0.4098017714036238       -0.25940739055021084     0.1939877807295647
-0.3898901414022481       -0.2561849058122221      0
-0.2769774713759982       -0.3973137358020799      0
-0.28270055390886484      -0.41938820144983396     0.24600603049970554
-0.2777777777777781       -0.5                     1
-0.296021057078054        -0.46742180685908047     0.7131232311800327
-0.47092052987476385      -0.22059276411461007     0.7844955050819041
-0.5                      -0.20370370370370372     1
-0.39830387854121346      -0.23866045660755847     0.16456524268280467
-0.3780843676954787       -0.2375273538130705      0
-0.25939329136094547      -0.4088842339733544      0.18470228637389163
-0.2561851203360934       -0.3898902459671648      0
-0.26059978603338385      -0.4741942379669044      0.7827840921896878
-0.24074074074074103      -0.5                     1
-0.47120431612483443      -0.1840915959278955      0.8173605245083192
-0.5                      -0.1666666666666667      1
-0.38407068921651005      -0.21789799784071517     0.1571263374756193
-0.36247245594592825      -0.22191548009954823     0
-0.236832063449358        -0.39869958147511136     0.17605064651745553
-0.23752754313019522      -0.3780845191612933      0
-0.22417379027517756      -0.4724489997895403      0.7929911001357994
-0.20370370370370394      -0.5                     1
-0.47096266940214115      -0.1481904229548537      0.8425369464709318
-0.5                      -0.12962962962962965     1
-0.3438148795852431       -0.21010975399449255     0
-0.363908812731536        -0.19991776031011316     0.14000341166975008
-0.21626977190666236      -0.38351588459553393     0.1618034049012208
-0.22191563271823447      -0.36247264670402835     0
-0.18766753860028543      -0.47200929858132634     0.8196113299602309
-0.16666666666666685      -0.5                     1
-0.4706389834579526       -0.11116162185996031     0.8619865041372986
-0.5                      -0.09259259259259259     1
-0.3230225285687367       -0.20268626418484537     0
-0.34248806555870465      -0.18625253504144704     0.13100740988552498
-0.20049777568056779      -0.36353436506251313     0.13522754578690166
-0.21010985863553422      -0.3438150942652913      0
-0.14954949917857713      -0.47130226016203614     0.8434788883047079
-0.12962962962962976      -0.5                     1
-0.11262588520500083      -0.47044199321876234     0.8603621016658313
-0.09259259259259267      -0.5                     1
-0.18904191404734932      -0.3410551240217591      0.11326195098205682
-0.20268608216487918      -0.3230217591764695      0
-0.4704770041945895       -0.07422694618745593     0.8756227243996991
-0.5                      -0.05555555555555558     1
-0.47052086202317467      -0.03722098791573314     0.884040981695831
-0.5                      -0.018518518518518573    1
-0.3                      -0.19999999999999998     0
-0.30787012527158053      -0.18139767357773148     0.08841294787837412
-0.07512780477308953      -0.47030768571885145     0.8746419169638672
-0.05555555555555558      -0.5                     1
-0.037440273284191763     -0.4703657619035818      0.8834049884713092
-0.01851851851851849      -0.5                     1
-3.276030043664409E-4     -0.47068211765943374     0.8873434621727389
0.018518518518518573      -0.5                     1
0.036727510513789724      -0.4709722094590334      0.8858687093951957
0.05555555555555558       -0.5                     1
-0.1820487786308851       -0.3162438689076763      0.09552713099029446
-0.19999999999999998      -0.3                     0
-0.18111155277984398      -0.29248123205378024     0.07924980232905178
-0.2026862642207384       -0.27697747127954736     0
-0.2101097541237059       -0.25618512014966394     0
-0.18732554251491285      -0.2562106115754895      0.06682131291436298
-0.47056976214988305      -1.9157094704384063E-4   0.8869161815471386
-0.5                      0.01851851851851849      1
-0.2769782407261428       -0.20268608218791842     0
-0.2800755289779867       -0.1791114979695611      0.08387807986440511
-0.256184905547161        -0.21010985872695048     0
-0.2560228222251261       -0.19058026524253843     0.05779964026768334
0.07337006428747396       -0.4712458345087048      0.8790794831697043
0.09259259259259259       -0.5                     1
-0.23752735231592192      -0.22191563350233892     0
-0.23452189676856158      -0.20185049939394573     0.05225326780333541
-0.19855902129833725      -0.2359768314050088      0.057910061892356694
-0.22191547886400578      -0.23752754559838013     0
-0.21539757444782026      -0.21694392764332066     0.05193012449635364
0.1103764238952778        -0.47137020471910795     0.8657537345932284
0.12962962962962965       -0.5                     1
-0.47053005706615686      0.03687162344329729      0.8841272128620813
-0.5                      0.05555555555555558      1
-0.47039294137103027      0.07407466871179139      0.8753178843286272
-0.5                      0.09259259259259267      1
-0.47067531318095296      0.11130283798337857      0.8620915772057395
-0.5                      0.12962962962962976      1
-0.47120648585118463      0.14912126637850354      0.8432402199976495
-0.5                      0.16666666666666685      1
0.14692151519342497       -0.47166316486479404     0.8471170747833056
0.1666666666666667        -0.5                     1
-0.47229189095388957      0.18750135392369208      0.8215592519993589
-0.5                      0.20370370370370394      1
-0.3780845191612933       0.23752754313019522      0
-0.3898902459671648       0.2561851203360934       0
-0.39806051754612004      0.2355805239941579       0.17621536654498182
0.1832256825405543        -0.47183573804949086     0.8220329843520621
0.20370370370370372       -0.5                     1
0.2379202396414603        -0.3982471647828492      0.16735915674510238
0.2561849058122221        -0.3898901414022481      0
0.2375273538130705        -0.3780843676954787      0
-0.3830978795005853       0.21655482473196808      0.15765050489115853
-0.36247264670402835      0.22191563271823447      0
-0.4722061870859579       0.22426225504023287      0.7910802930572385
-0.5                      0.24074074074074103      1
-0.3973137358020799       0.2769774713759982       0
-0.4083559689367504       0.2550942821298523       0.19337976043643457
0.21734785971598805       -0.3840427891731238      0.15974933316068043
0.22191548009954823       -0.36247245594592825     0
0.21916802753522893       -0.4718714985731821      0.7927436715366115
0.24074074074074073       -0.5                     1
0.2589676997291976        -0.4099142467690829      0.19647822048996655
0.2769782408783278        -0.39731391784808434     0
-0.36487605292944636      0.20080564912464133      0.13972806773271182
-0.3438150942652913       0.21010985863553422      0
-0.47154974747841555      0.25943554566841626      0.7608810058123957
-0.5                      0.2777777777777781       1
-0.4                      0.3                      0
-0.4205646582651378       0.2894413996069987       0.25266651493207254
0.21010975399449255       -0.3438148795852431      0
0.19905165098129204       -0.3638359627442798      0.14417734440211746
0.2777777777777778        -0.5                     1
0.25923820054035346       -0.4677833396769848      0.7288195363980697
0.2838400310866622        -0.42096474359803504     0.2618757776271496
0.3                       -0.4                     0
-0.34312643512893304      0.18837336011671893      0.12250783601343222
-0.3230217591764695       0.20268608216487918      0
-0.466747338703947        0.29620469030891705      0.7070469548853843
-0.5                      0.3148148148148152       1
-0.3973139177816531       0.3230217594024799       0
-0.42202843151757935      0.3149346342595631       0.27617954521114024
0.20268626418484537       -0.3230225285687367      0
0.18682841311431383       -0.34248920051709325     0.12822150432492543
0.3148148148148149        -0.5                     1
0.29725503717459667       -0.466774171854621       0.7072772280484959
0.31393747086099244       -0.42164227307658686     0.2707542470368962
0.32302252884879823       -0.3973137357488975      0
-0.3178319305406304       0.17810615730442947      0.11488072454541734
-0.3                      0.19999999999999998      0
-0.4687741201098715       0.33359130855781455      0.7413026875214375
-0.5                      0.3518518518518523       1
-0.389890141146066        0.34381509471335553      0
-0.4117005527594852       0.34120010962576564      0.22751524648110047
0.19999999999999998       -0.3                     0
0.18101787118474322       -0.3070678212905067      0.08921893875921559
0.35185185185185186       -0.5                     1
0.3341610046120539        -0.4679691689839311      0.7349459767957571
0.34381488011079786       -0.38989024574933817     0
0.3405316568256868        -0.41158518876898587     0.22395118882183704
-0.28972342705401755      0.17551056443729235      0.09857642930825374
-0.27697747127954736      0.2026862642207384       0
-0.47225952316998115      0.36961191194104986      0.8063469033262783
-0.5                      0.3888888888888894       1
-0.3990040043452872       0.36352262831890014      0.20540729298786128
-0.37808436735502704      0.3624726466124591       0
-0.47292569786449434      0.4058330406148922       0.8589777648900422
-0.5                      0.4259259259259265       1
0.20268608218791842       -0.2769782407261428      0
0.1792149665940006        -0.28006542831714676     0.08352968325350597
0.36982772172732037       -0.47149750792999257     0.8012145751990022
0.38888888888888884       -0.5                     1
0.363155101711348         -0.3990611019364877      0.20387539644002659
0.36247245664978767       -0.3780845193373206      0
0.407370738852312         -0.4728129797388053      0.8606009677634866
0.42592592592592593       -0.5                     1
-0.2607501131068072       0.1854369557993422       0.0693575694160798
-0.25618512014966394      0.2101097541237059       0
-0.3834127953037847       0.38233910158135315      0.19816410591498998
-0.36247245664978767      0.3780845193373206       0
-0.46754560686143354      0.4442401333026232       0.8988974563511432
-0.5                      0.4629629629629636       1
-0.475066409394734        0.4759844720651169       0.9665396855630168
-0.5                      0.5                      1
0.21010985872695048       -0.256184905547161       0
0.19017644269585063       -0.25587111682963726     0.059061990071927827
0.38277604400819915       -0.38295744458245423     0.19800114800925261
0.37808436735502704       -0.3624726466124591      0
0.4441739740668311        -0.47344046313830684     0.9172088079068752
0.462962962962963         -0.5                     1
0.47473649974645904       -0.47627387151385675     0.9665053639127648
0.5                       -0.5                     1
-0.23755996434594986      0.1988662110807734       0.055260423871546026
-0.23752754559838013      0.22191547886400578      0
-0.34381488011079786      0.38989024574933817      0
-0.3652873950114689       0.3972425533490713       0.1995391353965322
-0.462962962962963        0.5                      1
0.22191563350233892       -0.23752735231592192     0
0.20163571386943696       -0.23466454803533157     0.0525532247589618
0.23752754559838013       -0.22191547886400578     0
0.21650037261494243       -0.2150045226136072      0.05341938308104343
0.3988348878455728        -0.3639793178107755      0.20644962131092703
0.389890141146066         -0.34381509471335553     0
0.5                       -0.4629629629629636      1
-0.21722840732520407      0.2152175574660188       0.051756413095070196
-0.22191563350233892      0.23752735231592192      0
-0.32302252884879823      0.3973137357488975       0
-0.34500185571559283      0.41125477655056414      0.23690799597765963
-0.44482347714927367      0.4727192640599976       0.9159386611114136
-0.42592592592592593      0.5                      1
0.25618512014966394       -0.2101097541237059      0
0.23568262740709114       -0.19888531446561533     0.0575254559063812
0.41185184303692657       -0.3420046817857756      0.23194749278471863
0.3973139177816531        -0.3230217594024799      0
0.5                       -0.4259259259259265      1
0.46654556170250094       -0.4449659314680135      0.8971232620741791
-0.20104342859292346      0.23522604369429756      0.053162878342190745
-0.21010985872695048      0.256184905547161        0
-0.18966861459035103      0.25781739215173144      0.05901825064417221
-0.20268608218791842      0.2769782407261428       0
-0.3                      0.4                      0
-0.30773408453234063      0.41908221970974824      0.23634570467954985
-0.4083729261553975       0.4718720900294168       0.8572390172629768
-0.38888888888888884      0.5                      1
0.27697747127954736       -0.2026862642207384      0
0.2557655832234964        -0.18759373269066515     0.06638852307987682
0.4213487106821134        -0.31522489816540206     0.26913124529195237
0.4                       -0.3                     0
0.4701546325106044        -0.40847724732893625     0.8486146499302546
0.5                       -0.3888888888888894      1
-0.18327924689153513      0.28157177597110494      0.06956242619824853
-0.19999999999999998      0.3                      0
-0.18071034139875708      0.305481306238246        0.08902109904739623
-0.20268626418484537      0.3230225285687367       0
-0.2593747448879734       0.40875508785826886      0.1834491151217986
-0.2769782408783278       0.39731391784808434      0
-0.2561849058122221       0.3898901414022481       0
-0.2827055915807022       0.42014634092303466      0.25422370869226213
-0.371835273309633        0.4717215480316026       0.8053060019041852
-0.35185185185185186      0.5                      1
0.3                       -0.19999999999999998     0
0.29249851284940515       -0.18035965848424731     0.08209509052305765
0.420228191053581         -0.2897630311528251      0.24873377790176862
0.3973137358020799        -0.2769774713759982      0
0.47204223667731193       -0.3704011225389625      0.805761693776133
0.5                       -0.3518518518518523      1
-0.21010975399449255      0.3438148795852431       0
-0.18613979817560203      0.3414225697735614       0.1285237514415654
-0.20050848700143026      0.3628695475326527       0.13220515153420165
-0.22191548009954823      0.36247245594592825      0
-0.23802154462018382      0.3979414071599934       0.16429712178650757
-0.2375273538130705       0.3780843676954787       0
-0.21770579123634726      0.38318407372933494      0.15228999011396185
-0.3361721512481637       0.4660358897171445       0.7203682952557867
-0.3148148148148149       0.5                      1
0.3230217591764695        -0.20268608216487918     0
0.3189309256085623        -0.17931094859804778     0.11144716725442583
0.3438150942652913        -0.21010985863553422     0
0.3418669772567732        -0.19084202199008365     0.10642685020994237
0.36368567983208155       -0.20144854495734438     0.13085634502545077
0.36247264670402835       -0.22191563271823447     0
0.3898902459671648        -0.2561851203360934      0
0.4082380502747201        -0.2553159466591304      0.1914722176372555
0.3976001135433647        -0.23578069513796987     0.17146093434242138
0.3780845191612933        -0.23752754313019522     0
0.3823990308567335        -0.21723883374570663     0.14959245132426732
0.5                       -0.3148148148148152      1
0.46683642927594493       -0.3349460040731737      0.72602054654026
-0.2977683407093895       0.46543968827767607      0.6951888799150314
-0.2777777777777778       0.5                      1
0.5                       -0.2777777777777781      1
0.46631769515663013       -0.29663086333695776     0.7031546788042576
-0.2617888306649316       0.4648502319798916       0.7018573485328384
-0.24074074074074073      0.5                      1
0.4711166533056273        -0.25988517931488647     0.7569315751771158
0.5                       -0.24074074074074103     1
-0.2233363647274451       0.47010650918236463      0.7760414073739837
-0.20370370370370372      0.5                      1
0.5                       -0.20370370370370394     1
0.47013212440016305       -0.22618566614890595     0.7737665228220255
-0.18397243437293032      0.47069403043512453      0.814241249304582
-0.1666666666666667       0.5                      1
0.21624374858275972       0.21646288587374218      0.05126632569783745
0.23752735231592192       0.22191563350233892      0
0.22191547886400578       0.23752754559838013      0
0.47020168639738086       -0.18825702331819083     0.8075068512610838
0.5                       -0.16666666666666685     1
0.2101097541237059        0.25618512014966394      0
0.1998481636603248        0.23592521351048082      0.05501119626781007
-0.14695485027610197      0.470849623364402        0.84274469524558
-0.12962962962962965      0.5                      1
0.23534013008030874       0.20012433695177023      0.05512703413147129
0.256184905547161         0.21010985872695048      0
0.4703310850322684        -0.15021590404507035     0.8377730391068349
0.5                       -0.12962962962962976     1
0.2026862642207384        0.27697747127954736      0
0.18772650518865128       0.25640031097770233      0.06556522122805845
-0.11045168891195238      0.4706885059389388       0.8625536870699667
-0.09259259259259259      0.5                      1
0.2573074423761783        0.1877542066872038       0.06486166256506515
0.2769782407261428        0.20268608218791842      0
0.47013737335438904       -0.11225856499228502     0.8591227307600587
0.5                       -0.09259259259259267     1
0.19999999999999998       0.3                      0
0.18164814599090978       0.2924062351102144       0.07717950788274963
-0.07390154928974411      0.47049333608967386      0.8757884435316293
-0.05555555555555558      0.5                      1
0.28220586828570465       0.17733618982363614      0.09008086930272083
0.3                       0.19999999999999998      0
0.47016920067825085       -0.07475228572181278     0.8741773634038622
0.5                       -0.05555555555555558     1
0.20268608216487918       0.3230217591764695       0
0.18223533283882162       0.3169931084480712       0.09575802221777119
-0.03714887950882729      0.47038189777806183      0.8835104284899503
-0.018518518518518573     0.5                      1
0.31079490552672523       0.17556551018973304      0.11560107435361412
0.3230225285687367        0.20268626418484537      0
0.47050629776017755       -0.03741028493490563     0.8839567752663289
0.5                       -0.01851851851851849     1
0.21010985863553422       0.3438150942652913       0
0.1888403406176425        0.34095414154394754      0.11398093042349343
-2.1668081830922455E-4    0.47037206288148203      0.8861641558107779
0.01851851851851849       0.5                      1
0.33978542955732544       0.18575079470084505      0.1258832878141143
0.3438148795852431        0.21010975399449255      0
0.47063371161313994       -3.512729982447681E-4    0.8871594371510528
0.5                       0.018518518518518573     1
0.20013803186712423       0.36304408568695956      0.13492014124262253
0.22191563271823447       0.36247264670402835      0
0.03676740977866385       0.4704222842887073       0.8837229437385637
0.05555555555555558       0.5                      1
0.3622656377823734        0.19954171148430258      0.13460866799111357
0.36247245594592825       0.22191548009954823      0
0.4706559485190081        0.03663998783995014      0.8846507437037666
0.5                       0.05555555555555558      1
0.2160925945966556        0.3821416060191872       0.15388259997007528
0.23752754313019522       0.3780845191612933       0
0.07383942165712477       0.470535620365151        0.8759837933132024
0.09259259259259267       0.5                      1
0.38194125554178066       0.21541525669256897      0.15610466514184404
0.3780843676954787        0.2375273538130705       0
0.47054754945302907       0.07378290125290157      0.8760506946401713
0.5                       0.09259259259259259      1
0.2561851203360934        0.3898902459671648       0
0.23501370944123032       0.3976647481124912       0.1754587286716025
0.11125824146217984       0.47072907058847624      0.8623607477964885
0.12962962962962976       0.5                      1
0.3981582431136781        0.23454128663384777      0.1816497559906887
0.3898901414022481        0.2561849058122221       0
0.470488103227661         0.11106112010855801      0.8613342799180242
0.5                       0.12962962962962965      1
0.2769774713759982        0.3973137358020799       0
0.2554811690207928        0.4094567687982842       0.2029645935234062
0.14964181271856436       0.47140581028788087      0.8439798381195328
0.16666666666666685       0.5                      1
0.41102010751238416       0.2563745820900485       0.2155477642355714
0.39731391784808434       0.2769782408783278       0
0.4707384005510646        0.14818394575392121      0.8413445003244912
0.5                       0.1666666666666667       1
0.2916953437245404        0.41473656043313767      0.1853174122492926
0.3                       0.4                      0
0.1868464236601802        0.47101061081635165      0.8138791480883397
0.20370370370370394       0.5                      1
0.42008367114870715       0.28200538149747784      0.2543788424598843
0.4                       0.3                      0
0.4704868119858958        0.1858254681989059       0.8113825566573772
0.5                       0.20370370370370372      1
0.3230217594024799        0.3973139177816531       0
0.3138436616207015        0.41877094999392506      0.23878402451964303
0.22423326641787208       0.4723077155310548       0.7918855692000398
0.24074074074074103       0.5                      1
0.41888346093673345       0.30724011969010784      0.23375300454091263
0.3973137357488975        0.32302252884879823      0
0.4709137961794537        0.22307994813491372      0.7823288375799332
0.5                       0.24074074074074073      1
0.34381509471335553       0.389890141146066        0
0.34032681402139475       0.41146497905901447      0.22194887431189955
0.26048638316521006       0.47396481450934935      0.7809037333620467
0.2777777777777781        0.5                      1
0.36300467499586786       0.3991636248183129       0.20396852887185882
0.3624726466124591        0.37808436735502704      0
0.3825688206333458        0.3834399149935917       0.2000772452082333
0.3780845193373206        0.36247245664978767      0
0.38989024574933817       0.34381488011079786      0
0.41164725548983316       0.3447514037535496       0.23994701589687706
0.3984957357961105        0.3647879670003005       0.20797223878306023
0.5                       0.2777777777777778       1
0.4662104320539756        0.2591510818672631       0.7153746613116371
0.3148148148148152        0.5                      1
0.2965298772973739        0.46796061436389663      0.7180063083370241
0.5                       0.3148148148148149       1
0.46563140908282685       0.2974135455639382       0.6969107188099173
0.3518518518518523        0.5                      1
0.3345147573332333        0.4671116720711632       0.727989570952718
0.5                       0.35185185185185186      1
0.46611927574676326       0.33607959405454935      0.7209948529799644
0.3691470875736277        0.47123415256628653      0.7984866747129978
0.3888888888888894        0.5                      1
0.47082021267769447       0.3705442642618587       0.7973302707797881
0.5                       0.38888888888888884      1
0.40629643242636354       0.4718575844012358       0.8540595072143936
0.4259259259259265        0.5                      1
0.47187941234439296       0.40808368477833606      0.8568409189027325
0.5                       0.42592592592592593      1
0.4431624617450944        0.4670916415873262       0.8955017354244178
0.4629629629629636        0.5                      1
0.47271056374406856       0.44452355553338596      0.9154563247872615
0.5                       0.462962962962963        1
0.47576719769042536       0.47491563201673503      0.9660321551201154
0.5                       0.5                      1
-0.4445470377391275       -0.4290964804276915      0.779681394708914
-0.4401706866309705       -0.3899730192593916      0.6332968608737103
-0.422862275665449        -0.363780889835354       0.41523726947641365
-0.4063825295485748       -0.38687355398972767     0.3942906140768642
-0.41333715710261976      -0.4162073604448225      0.5892813910626128
-0.4189179391962748       -0.44367786261876707     0.744147666973574
-0.3861697695902438       -0.40826481761876304     0.40369575979689315
-0.4471187883924966       -0.36005335930247406     0.6018319845756813
-0.4349828111665383       -0.3393886656847067      0.4510217796244657
-0.42114190259349255      -0.32655082046804884     0.2859631619781912
-0.3881380533386645       -0.44015682630037567     0.6274614982831374
-0.3623258228787364       -0.42315136367820416     0.41227780324796476
-0.4431034035440894       -0.3168740721653874      0.4941511683491095
-0.43837315653003567      -0.29685847120093717     0.4378144503132625
-0.35833649075643864      -0.44711555128734415     0.5979856449797915
-0.3372021475441044       -0.43598427440189214     0.4557803946792079
-0.4448584577829225       -0.279164932493586       0.5080779429566813
-0.3148869884013965       -0.4453499358280618      0.5141506787779971
-0.4338538731407759       -0.2591167434867247      0.42779698647950587
-0.29572567349189893      -0.4389845155136589      0.4439408890351034
-0.41898898500238146      -0.24239228253397244     0.3314477866221625
-0.4428560552273718       -0.23121491641351258     0.5554953851085171
-0.2733403520204357       -0.4463506441848149      0.5266048408824117
-0.2594498806679745       -0.42866473784646325     0.3785666670171891
-0.4126242109085641       -0.21514317401986094     0.36631713125517734
-0.44270638052029176      -0.19978470738938628     0.6119998400422594
-0.24415827929682518      -0.448669464122845       0.5819802592256273
-0.23747398694571928      -0.4204360424636252      0.3579956069550007
-0.3883124049677202       -0.19034118405972206     0.3044696712970882
-0.41557780097792013      -0.18015460093074048     0.486968205589462
-0.44274294657338104      -0.16454511860352616     0.6706724763245676
-0.36025690546830996      -0.16909058483589584     0.2620863171222409
-0.21254487735274194      -0.4079867144199132      0.3425014480021935