% Model:              heat_case2.mph
% Version:            COMSOL 6.0.0.354
% Date:               Mar 29 2023, 20:04
% Dimension:          2
% Nodes:              3000
% Expressions:        26
% Description:        因变量 u
% Length unit:        m
% X                       Y                        u (K) @ t=0              u (K) @ t=0.2            u (K) @ t=0.4            u (K) @ t=0.6            u (K) @ t=0.8            u (K) @ t=1              u (K) @ t=1.2            u (K) @ t=1.4            u (K) @ t=1.6            u (K) @ t=1.8            u (K) @ t=2              u (K) @ t=2.2            u (K) @ t=2.4            u (K) @ t=2.6            u (K) @ t=2.8            u (K) @ t=3              u (K) @ t=3.2            u (K) @ t=3.4            u (K) @ t=3.6            u (K) @ t=3.8            u (K) @ t=4              u (K) @ t=4.2            u (K) @ t=4.4            u (K) @ t=4.6            u (K) @ t=4.8            u (K) @ t=5
0.0016666666666666668     0.05                     0.016508714694235056     0.013558056146383713     0.011128678099320404     0.009081296655123644     0.007390121254961274     0.005992452962199901     0.004855988690586647     0.003946425525719162     0.0031896497158384936    0.0025859456982183855    0.002102347686483095     0.0017032268583922084    0.0013823836527564854    0.0011231557571307646    9.118425405976211E-4     7.424801803999421E-4     6.049876470819085E-4     4.931344601223624E-4     4.022286346558584E-4     3.287708962614375E-4     2.6913728433984596E-4    2.2076827985251463E-4    1.8121738013324217E-4    1.4869954956420956E-4    1.219674790055633E-4     9.984497370282338E-5
0.005                     0.05                     0.04824880090865857      0.03974710587096947      0.032750083402015545     0.02681268918042683      0.021876009931223715     0.01777859408041964      0.014430744244751914     0.011738337538999598     0.009495022108825581     0.007700487914963244     0.006260977485755191     0.0050726580722789995    0.004117018608113266     0.0033448071356286385    0.0027153975713887168    0.002210972603799095     0.001801506959970432     0.0014684224348915922    0.0011977301728680128    9.790004262365756E-4     8.01435102400599E-4      6.574110469634389E-4     5.396417432158946E-4     4.428123637832145E-4     3.6320979728008795E-4    2.973326649393941E-4
0.008333333333333333      0.05                     0.07826005176006406      0.06460518264537546      0.05337641735217034      0.04380091017458348      0.03580181515541988      0.029142283105897022     0.023682302611607198     0.019276305602960408     0.01560150595301555      0.012656093003328922     0.010291031164297294     0.008338309519643898     0.006767462146920466     0.005497984904270868     0.004463324465722434     0.003634139091159027     0.0029610845077228565    0.0024136023203427098    0.001968683910776158     0.001609177500980999     0.0013173288655067747    0.0010806073229232668    8.870355606122667E-4     7.278788317335481E-4     5.970353557127794E-4     4.887513117619259E-4
0.011666666666666667      0.05                     0.10469928703123607      0.08614980113232179      0.07091630803404789      0.05801464760636617      0.04730611682118811      0.03842741834971543      0.031181478939195005     0.025360733579676314     0.02051209310465075      0.016635579211300305     0.013526569176207714     0.010959935677555495     0.008895795580440086     0.007227710642294755     0.0058679453660159765    0.004778082488844434     0.00389331590835625      0.0031735456489914906    0.0025885705713424956    0.0021158681951425505    0.001732116497820039     0.001420846721656046     0.0011663172153364401    9.57043640359913E-4      7.850014115665501E-4     6.426234112528054E-4
0.015                     0.05                     0.12646995819348655      0.1043198831875535       0.08608768139166442      0.07057246274876186      0.05763756388304534      0.04688311982865382      0.038078987599405444     0.03098495249381891      0.025070954981943387     0.02033495923516347      0.016533913714252318     0.013395909942577573     0.010871999666464736     0.008832474164407793     0.007170208121116998     0.005838081912443872     0.004756788182067133     0.0038772346605779303    0.0031624592288646367    0.0025849078014758683    0.0021160571262346566    0.001735774516531313     0.0014248164074374442    0.0011691484292353747    9.589666120749841E-4     7.850260972439253E-4
0.018333333333333333      0.05                     0.142963539558163        0.11772041107792537      0.09700717512389392      0.07943153536943329      0.06481667678851147      0.05268427916662744      0.04276932519685506      0.03479359451258581      0.02814719360639655      0.022829209606062006     0.01856250617511029      0.015040003883322084     0.012206918530083533     0.009917444700806782     0.008051282161556825     0.0065556383280316755    0.005341536956172545     0.004353906898637892     0.0035512756412312448    0.002902719734789945     0.0023762225596818012    0.0019491804568446524    0.001599987966431783     0.001312885630573311     0.0010768632198408202    8.815383376806575E-4
0.021666666666666667      0.05                     0.15297347055803534      0.12591422015877607      0.10374220963918515      0.08493412693999042      0.06929865212821133      0.05632142098714757      0.0457182960538678       0.0371908461131396       0.03008522941796906      0.02440060231050633      0.019840105518032922     0.016075131421160085     0.013047114244371428     0.010600138135068453     0.008605582312744692     0.007007025638227534     0.005709369402481861     0.0046537585407683485    0.0037958714134247056    0.0031026598755380373    0.002539906858241123     0.002083454422606054     0.0017102113859896256    0.0014033339995248792    0.0011510541481117534    9.422747212437923E-4
0.025                     0.05                     0.15641407644154115      0.12895042289473777      0.10638711546864768      0.08719590546662498      0.07120341666655995      0.05791036691406371      0.04703127968489622      0.038267889166051366     0.030962764286991656     0.025113639511146202     0.02041951912576398      0.01654421994909869      0.013427316780310339     0.010908578758247515     0.008855697469811286     0.00721050206832645      0.005875064078769129     0.004788766390412205     0.0039059679754014694    0.0031926433784598422    0.0026135690192329885    0.0021438815352388253    0.001759815545272116     0.001444038116528624     0.0011844405715188766    9.696047355394747E-4
0.028333333333333332      0.05                     0.1530206749413763       0.12601951326845218      0.10381253340848841      0.08498000065424996      0.06932906073205701      0.056341629294856095     0.045732506581980206     0.037201994499741556     0.0300940647957102       0.024408074769670794     0.019846535050003895     0.0160805950972514       0.013051721776572227     0.010603979368651551     0.008608746848350828     0.007009615121892321     0.0057114773738767225    0.004655468910615314     0.0037972572063103903    0.0031037838197265992    0.0025408197694411568    0.0020841976724698657    0.0017108173774833342    0.0014038282723191516    0.0011514573716213574    9.426029874811068E-4
0.03166666666666667       0.05                     0.14292271119545832      0.11783743912267367      0.09724271816933241      0.07971558842348046      0.06510273313228111      0.052953319476657976     0.043007369864443486     0.03499360720415961      0.0283132350701389       0.022963895083626062     0.0186709249969782       0.01512698236346315      0.012276733121455191     0.009973597514124806     0.00809652468960495      0.00659228146485732      0.00537128713861674      0.004378099694324778     0.0035709794811955723    0.002918812271925196     0.0023893897806753746    0.001959978421679987     0.0016088485233770144    0.0013201524586819713    0.0010828194968914926    8.864102425283592E-4
0.035                     0.05                     0.12650855365754674      0.10424967966376972      0.08591068252931117      0.07034636972242654      0.05740289387109377      0.04665802518200581      0.03787698018131542      0.030813426718943823     0.024927258965871307     0.020217628873690757     0.01643905593963348      0.01331953696788384      0.010810549287112711     0.008782970360593991     0.0071302706362399056    0.005805702391085201     0.004730472563985426     0.003855811098250689     0.003144989627952689     0.0025706215705044175    0.002104351959714065     0.0017261620975504357    0.001416917365792656     0.001162660609384428     9.536408114938715E-4     7.806629982054091E-4
0.03833333333333333       0.05                     0.10477254847206052      0.08636422972521847      0.07119115446971373      0.058307618141638554     0.047588084152272295     0.03868637082402403      0.0314088874402377       0.025552689667593328     0.020672208508555        0.016766534063006537     0.013632775900019413     0.011045641768034705     0.008964859499261383     0.0072833618344307835    0.005912794299312883     0.004814366300246259     0.003922721114576735     0.0031974062046983805    0.0026079593199809232    0.002131667729131648     0.0017450165653164142    0.0014314051132835559    0.0011749657606002406    9.641246852914417E-4     7.907960744686522E-4     6.473551992935236E-4
0.041666666666666664      0.05                     0.07808354135572514      0.0641927582207626       0.05293425003628685      0.0433687544706787       0.03540458680185394      0.028787941846315473     0.02337584210377634      0.019018561740141895     0.015386807355687088     0.012479702058233658     0.010146931698257922     0.008221106336988582     0.006672221430781074     0.005420600256624582     0.004400468734253712     0.0035829291889603455    0.002919316233309008     0.0023795091429740707    0.0019408284370948355    0.0015863660412582322    0.001298618058788678     0.0010652285571680195    8.743872698627959E-4     7.174804169228502E-4     5.88490471254687E-4      4.8174307137067697E-4
0.045                     0.05                     0.04842824004016991      0.03978879185918088      0.03278448935873752      0.0268425857528853       0.021902510552683666     0.017801917874395168     0.01445113115824961      0.011755961318284089     0.009510039280286724     0.007713090331980017     0.006271397588776775     0.00508117771348825      0.00412392449661945      0.003350366036371265     0.002719849989505728     0.0022145370552508546    0.0018043576699250344    0.0014707007196999515    0.0011995510201433567    9.804586387116552E-4     8.026045718762109E-4     6.583510266777828E-4     5.403975576373914E-4     4.434194058298629E-4     3.636967089394476E-4     2.9772175563663343E-4
0.04833333333333333       0.05                     0.01629977345684459      0.013641848003456025     0.011250517653615816     0.009216772092350528     0.0075230806570429866    0.006116166815452743     0.004965542425830451     0.004039364111901817     0.0032675420066256766    0.0026498719195353964    0.002154337097925338     0.0017452944410766525    0.001416358105853256     0.0011505811986286772    9.339780160130738E-4     7.604070699953146E-4     6.195261805067516E-4     5.049362151817292E-4     4.1181958890090656E-4    3.365850115109761E-4     2.755148401767275E-4     2.259850191619677E-4     1.854874046859724E-4     1.52192863703741E-4      1.248237233252092E-4     1.0217519665632262E-4
0.051666666666666666      0.05                     -0.016353276757672473    -0.013523400675760147    -0.011141435038674024    -0.009122466839763282    -0.007444371718975083    -0.0060513169430637705   -0.004912899324687745    -0.003997108147276312    -0.003233863121700727    -0.00262308999392331     -0.002132989871102351    -0.0017283444688251585   -0.0014028714292589701   -0.001139834124871679    -9.254202247252283E-4    -7.535665832352782E-4    -6.140543099747633E-4    -5.005581147011429E-4    -4.083146787711403E-4    -3.337723481740975E-4    -2.732538924275224E-4    -2.2416310350247725E-4   -1.8401837806425315E-4   -1.5100941733688764E-4   -1.2387130743477347E-4   -1.0141123437389194E-4
0.055                     0.05                     -0.048335589590440924    -0.039715466796543655    -0.03274913439020189     -0.026829762291011843    -0.02190168743811619     -0.017807904955490568    -0.014459779666479171    -0.01176452965933638     -0.00951814293809382     -0.007720093167399072    -0.006277291061510429    -0.005086148948550175    -0.004128113126434217    -0.0033539071382925585   -0.0027228586453514622   -0.0022171025595334667   -0.0018065481997028103   -0.0014725710175695866   -0.0012011467583970005   -9.818193206969383E-4    -8.037635051021363E-4    -6.593371512571238E-4    -5.412355216939248E-4    -4.44130413686011E-4     -3.642992152020741E-4    -2.982315550654296E-4
0.058333333333333334      0.05                     -0.0782001742862599      -0.06455419708362803     -0.05323023164516028     -0.043606790604341236    -0.03559520548490042     -0.02894055384157376     -0.02349852132092737     -0.019118116172378113    -0.015467367680026269    -0.012545432536269963    -0.01020086893543811     -0.00826524822161424     -0.006708420822160926    -0.005450306750989368    -0.004424816780405133    -0.0036029265857942857   -0.002935742649544732    -0.002393001787890257    -0.001951914918167637    -0.001595490501096981    -0.0013061368184018095   -0.0010714345002661267   -8.795125456102095E-4    -7.217119432941391E-4    -5.91982947862572E-4     -4.8462073869490446E-4
0.06166666666666667       0.05                     -0.10472283279696276     -0.08640043524654216     -0.0712322095884422      -0.058346553542644564    -0.04762250017618595     -0.03871634776908353     -0.03143450637117839     -0.02557427176633979     -0.020690353363824455    -0.016781750976074875    -0.013645555173683141    -0.011056353430103505    -0.008973837842726411    -0.00729088391061225     -0.005919090853437385    -0.004819643856421075    -0.003927144271551497    -0.0032011122051713243   -0.0026110640613038185   -0.002134270628559167    -0.0017471994592525783   -0.0014332368236767096   -0.0011765025754787684   -9.654132177423167E-4    -7.918757353466031E-4    -6.482585381793438E-4
0.065                     0.05                     -0.1265506912157831      -0.10426687774141613     -0.08595669160097294     -0.07040550480814527     -0.05746448402591997     -0.04671737619781795     -0.037930568453026156    -0.03085930489128655     -0.024966066937251702    -0.020249698315749264    -0.016465341924561193    -0.013341026028114574    -0.010828121533031511    -0.00879736488845356     -0.007142082701504514    -0.005815436676653782    -0.004738509747032075    -0.003862454477648409    -0.003150486217373546    -0.0025751777136948212   -0.0021081326061399355   -0.0017293034509534718   -0.0014195280251791877   -0.0011648289139350864   -9.554406549995694E-4    -7.8215458144934E-4
0.06833333333333333       0.05                     -0.14279863309368188     -0.11760516619594782     -0.096955673286719       -0.0794176718340793      -0.06482230329650243     -0.05270047447988821     -0.04278898744601307     -0.034812069687802503    -0.028163947260002924    -0.022843269743184583    -0.01857399733549775     -0.015049380710080554    -0.01221454782588889     -0.00992366620562089     -0.00805638190692032     -0.0065598452772633      -0.005345020740107545    -0.004356798861358014    -0.0035536804516001727   -0.0029047237300501667   -0.002377894127191981    -0.001950576167528298    -0.0016011530181547944   -0.0013138571105488397   -0.001077672479772307    -8.822112810172793E-4
0.07166666666666667       0.05                     -0.15309891989345628     -0.126091804379432       -0.10395740030239509     -0.0851567037218563      -0.06950885682513101     -0.056511972280167216    -0.04588416907925305     -0.037330138749485334    -0.030200975101314496    -0.0244951581498795      -0.019916862396131517    -0.01613718245461818     -0.013097254864125605    -0.01064067866643534     -0.008638371947678       -0.007033648461373796    -0.005731020267982051    -0.004671385743156424    -0.003810240734929344    -0.0031144038072028427   -0.00254952223971735     -0.002091344616661767    -0.001716690444107684    -0.0014086519903259021   -0.0011554169883052456   -9.458467301754714E-4
0.075                     0.05                     -0.15633958951511984     -0.12878683751340422     -0.10617430280236173     -0.08696939883306792     -0.070986449790479       -0.057711823519430126    -0.04685745677907166     -0.0381214969532823      -0.030840795043902032    -0.025013846947559083    -0.02033841903251763     -0.01647857156601791     -0.013374196535098831    -0.010865562649458824    -0.008820841684840076    -0.007182144164500594    -0.005851951755947289    -0.004769906537314274    -0.00389055852746255     -0.00318002130265848     -0.0026032125398272694   -0.0021353660970875174   -0.001752809546278517    -0.0014382766654100173   -0.0011797049883991335   -9.657199154230966E-4
0.07833333333333334       0.05                     -0.15299022448675004     -0.12604053041012928     -0.1039049644633717      -0.08510718422189961     -0.06946443067539602     -0.05647296105009407     -0.045850689976509686    -0.03730195873384836     -0.03017737741098577     -0.0244755255676115      -0.019900530047402845    -0.01612361532638864     -0.013085970056761407    -0.010631282879352154    -0.008630550083700965    -0.007027125005398286    -0.005725579011657271    -0.004666848119919046    -0.0038064569464944845   -0.0031112459370947173   -0.002546885564937821    -0.002089141459438049    -0.0017148495401579566   -0.0014071146839652778   -0.001154133936238461    -9.447774501805997E-4
0.08166666666666667       0.05                     -0.1429296450469384      -0.11770918190218262     -0.09703396740022052     -0.07947749655083697     -0.06486837390893149     -0.05273560859941152     -0.04281569647235223     -0.03483241408909267     -0.02817913272800935     -0.022854549315582715    -0.018582312473522444    -0.01505537418940086     -0.012218814721144612    -0.009926654416952518    -0.008058416342278735    -0.006561198768311294    -0.005345881333528077    -0.0043573055870714215   -0.0035539376883644593   -0.002904811672198945    -0.0023778693914262602   -0.0019504803607024665   -0.0016010136083613464   -0.0013136925706626712   -0.001077496002513709    -8.82031228587446E-4
0.085                     0.05                     -0.1264559412161077      -0.10409914556531409     -0.08581428813826131     -0.07028750968460454     -0.057367233762403644    -0.04663701716593932     -0.0378638364701384      -0.030803425678914913    -0.02491931732497025     -0.020210350724829698    -0.016432121544103076    -0.013313058104804801    -0.01080458282790943     -0.008777579462455505    -0.007125487983117461    -0.005801517805586086    -0.00472684618033491     -0.0038526896587240326   -0.0031423156414191796   -0.002568338380265028    -0.0021024066949177156   -0.0017245074336214392   -0.0014155114159487693   -0.001161467150629863    -9.526286520042177E-4    -7.798058148618737E-4
0.08833333333333333       0.05                     -0.10476008579863272     -0.08626826632957582     -0.07111561118048589     -0.05824805612111826     -0.04754036875999241     -0.0386476841275281      -0.03137689510023593     -0.025525600299623995    -0.020649234637005468    -0.016746822346287746    -0.013615805289166052    -0.011031089482736579    -0.008952408241957815    -0.007272744289088482    -0.005903776546820838    -0.004806724104975081    -0.003916259742995883    -0.003191953959027507    -0.002603365262776465    -0.002127798741259595    -0.0017417598508340582   -0.0014286642267990627   -0.001172660085454208    -9.62186616579578E-4     -7.89168159253914E-4     -6.459897045293174E-4
0.09166666666666666       0.05                     -0.0781285472145741      -0.06437398597974558     -0.053067840454001126    -0.04346580306113697     -0.035475107653033446    -0.028838820310097803    -0.02341285374471596     -0.019046221967481226    -0.01540722528447988     -0.012495114762537523    -0.010158723719925999    -0.00823003928890544     -0.006679002074146781    -0.00542573580522654     -0.004404319752069909    -0.0035858098999594985   -0.002921452366336994    -0.0023810759135762436   -0.0019419637304689218   -0.0015871803148583183   -0.0012991938474847925   -0.0010656293768909696   -8.746586485790409E-4    -7.176555976430976E-4    -5.885948710762713E-4    -4.817948561012878E-4
0.095                     0.05                     -0.04829080711417849     -0.039776880756665765    -0.03279070109298249     -0.02685733494470321     -0.021919530060869778    -0.017818614727356612    -0.014465585156896945    -0.011767178630548845    -0.009518472389265306    -0.00771899335475457     -0.006275332895091102    -0.005083647601861847    -0.004125354375271448    -0.0033510798383790223   -0.002720076221338411    -0.002214452555129215    -0.0018040760978740224   -0.001470300596950514    -0.0011990874987328288   -9.799715132709547E-4    -8.021193107353704E-4    -6.578846309755767E-4    -5.399590795357888E-4    -4.430132502184391E-4    -3.6332486702238796E-4   -2.973840586079856E-4
0.09833333333333333       0.05                     -0.0164956999334546      -0.013565503818093213    -0.011179993247845976    -0.009155349029578272    -0.007470987761357016    -0.006072199081532016    -0.0049286409676658595   -0.004008459016511631    -0.003241695189750057    -0.0026282018365162796   -0.0021361098355867627   -0.0017299863180921214   -0.0014034884186747462   -0.0011397595726066875   -9.248861033282086E-4    -7.52759364060391E-4     -6.130946733056021E-4    -4.995298908433152E-4    -4.0727630300867775E-4   -3.3276498336966455E-4   -2.7230229265205085E-4   -2.2328213691447758E-4   -1.8321370262054535E-4   -1.502814030171378E-4    -1.232177584317875E-4    -1.0082770729489637E-4
0.10166666666666667       0.05                     0.016482096607259474     0.013630605136094202     0.011245939542440568     0.009216113231252874     0.007524849056984207     0.006119758582262337     0.004970374561781964     0.004044958446888944     0.003273611524243285     0.0026561126626148063    0.002160508900919572     0.0017512407043721095    0.0014219420422252342    0.0011557224164213064    9.386459571721201E-4     7.645920431727932E-4     6.232456050448091E-4     5.082191086418453E-4     4.147006515365393E-4     3.391011148059054E-4     2.7770340273199903E-4    2.278819667552145E-4     1.8712700535485657E-4    1.536066850404244E-4     1.2604028289499997E-4    1.032199617689757E-4
0.105                     0.05                     0.048317726213852365     0.03988091978615811      0.032891800213887844     0.026948706713866188     0.02199952643931581      0.017888302637789746     0.01452588209155391      0.011819134576016056     0.009563180685926933     0.007757453636434467     0.0063084188452446       0.005112024164087828     0.0041496423495371556    0.0033718169594856035    0.0027377356212911264    0.0022294741542999963    0.001816833616744948     0.001481119090691306     0.0012082507878610964    9.87729437521795E-4      8.086837362817973E-4     6.634374750477249E-4     5.446532188168131E-4     4.4697781023937395E-4    3.666703710928473E-4     3.002031869877568E-4
0.10833333333333334       0.05                     0.07807906775175154      0.06441676586609307      0.053121333708048585     0.04351990543740398      0.0355257839482066       0.028885498146018276     0.023455013420747003     0.019083725454883044     0.015440476716041387     0.01252440688600915      0.010184417718010347     0.00825246797494072      0.006698479783596891     0.005442567830193559     0.004418805670186088     0.003598239160845828     0.0029320872725311846    0.0023901532253482365    0.0019496959127162435    0.0015937581918599641    0.001304782852938084     0.0010703736940284782    8.786817235503287E-4     7.210630672218064E-4     5.91477853729716E-4      4.842304724412229E-4
0.11166666666666666       0.05                     0.1047727868383793       0.0863741625130692       0.07122050374077839      0.05834391689890682      0.047624939589075314     0.03872173535216835      0.031441112837946865     0.025580890965014112     0.020696711292829142     0.016787492267592977     0.01365060035492733      0.011060754322109529     0.00897763984712553      0.007294149399886693     0.005921887947577623     0.004822033877151222     0.00392918183366722      0.0032028454070634595    0.0026125353683320897    0.002135517840533081     0.0017482551268132693    0.0014341292849808286    0.001177256047794036     9.66048423770578E-4      7.924105496120312E-4     6.487080858908908E-4
0.115                     0.05                     0.1264774941772517       0.10418791026796204      0.08590003464066699      0.07036503395489935      0.05743523452397008      0.046696236800465196     0.037914948928702626     0.030847243303649047     0.024956764477844853     0.02024227746840105      0.01645930859225169      0.01333612925265472      0.010824122219143124     0.008794090562467133     0.007139406975221193     0.0058132446768646645    0.0047367134627495965    0.0038609819361452545    0.003149277913929531     0.002574183740251288     0.0021073131990441457    0.0017286261862419572    0.0014189674797132445    0.001164364813734296     9.550563231439308E-4     7.818367288410128E-4
0.11833333333333333       0.05                     0.14283504555725307      0.11763873533186611      0.09698132405311238      0.07943795980738094      0.06483854220836117      0.05271330541682577      0.04279902230404505      0.03481982917864308      0.02816979830545447      0.022847592836422365     0.01857711998477015      0.015051559470382298     0.01221602239946242      0.009924623435391373     0.008056960958151251     0.0065601621362054       0.005345154596924861     0.004356807326554828     0.0035536060122027574    0.002904598449306875     0.0023777400280592573    0.0019504090086695325    0.0016009826632263089    0.001313689754200573     0.0010775122257644688    8.820603305910968E-4
0.12166666666666667       0.05                     0.15303257337356546      0.12600657903267176      0.1038719682443136       0.08507794285344249      0.06943940857235974      0.05645160198794642      0.04583253536823112      0.037286535366519095     0.03016427111548561      0.024464354620231398     0.019890987094142228     0.01611548587083419      0.013079055979327228     0.010625416927316082     0.008625587515532936     0.007022931261846357     0.005722040499709834     0.0046638665515943084    0.0038039470894027584    0.003109133332777438     0.0025451077318683324    0.0020876452506209324    0.0017135908245752463    0.0014060565659924074    0.001153245077600487     9.440318247535937E-4
0.125                     0.05                     0.15633235895208464      0.12868426128625185      0.10607324615874203      0.0868774142199451       0.07090578763717761      0.057641739698312586     0.046797242939451617     0.03807018836917171      0.03079718678489104      0.024976851962979274     0.02030703214482683      0.016452015028741697     0.0133517524334925       0.010846624201513024     0.008804893265266529     0.007168716664512573     0.005840658645896605     0.00476041854563603      0.0038825931034227107    0.003173333263934029     0.002597597546737872     0.0021306510343495648    0.001748851445885641     0.0014349564679432857    0.001176921815630942     9.63390251300367E-4
0.12833333333333333       0.05                     0.15303199461232964      0.125980413077201        0.10383982336174567      0.08504522212263838      0.06940838625904446      0.056422721751512216     0.045806196083952644     0.0372629184763765       0.030143212976501275     0.024445746360732285     0.01987465256963935      0.01610123009530703      0.013066688703433358     0.010614745432860563     0.008616418119323321     0.007015076447306714     0.005715330535768757     0.004658148633096533     0.003799084398419119     0.003105003213343269     0.0025416040812097787    0.002084675758659857     0.0017110766356241876    0.001403930342209065     0.0011514488386301885    9.425166079604856E-4
0.13166666666666665       0.05                     0.14283618925604163      0.11757900086881233      0.09691208501665342      0.07936930835490162      0.06477452691243508      0.052654494236240475     0.0427459307558892       0.034772588211375625     0.02812795667099075      0.022810805888073896     0.01854495161551761      0.01502357733193363      0.012191809653896497     0.009903773545938882     0.008039077087019739     0.006544863408549624     0.005332100748624196     0.004345694209506102     0.0035441627188439496    0.0028965830291417505    0.0023709440273757417    0.0019446515438401224    0.0015961097098747443    0.0013095700588904933    0.0010740329003427528    8.791261690208026E-4
0.135                     0.05                     0.12647542050191501      0.104084392813441        0.08578808567341316      0.0702577108976148       0.057337363453101024     0.04660797100830167      0.037836437989931124     0.03077817975576728      0.0248962166154362       0.020189463597579012     0.016413404813922554     0.013296408246857875     0.010789893157617223     0.008764711921443373     0.007114277721390975     0.005791795410226207     0.004718445382394495     0.0038454540028218264    0.0031361004062700794    0.002563010597258704     0.0020978481204719512    0.0017206130999222816    0.0014121894310182234    0.0011586375334441282    9.502216092348914E-4     7.777614410887914E-4